# vtk DataFile Version 3.0
"** Job name: Sat Model name: back
** Generated by: Abaqus/CAE 2016"
ASCII
DATASET UNSTRUCTURED_GRID

POINTS     938 double
6.247503e-01 1.950842e-01 0.000000e+00
6.599929e-01 2.064080e-01 0.000000e+00
5.893130e-01 1.843834e-01 0.000000e+00
6.173611e-01 8.839742e-02 0.000000e+00
6.602595e-01 1.014154e-01 0.000000e+00
7.028790e-01 1.153032e-01 0.000000e+00
7.451970e-01 1.300530e-01 0.000000e+00
7.871996e-01 1.456591e-01 0.000000e+00
8.288727e-01 1.621160e-01 0.000000e+00
8.702022e-01 1.794182e-01 0.000000e+00
9.111743e-01 1.975601e-01 0.000000e+00
9.517749e-01 2.165363e-01 0.000000e+00
9.919900e-01 2.363411e-01 0.000000e+00
1.028419e+00 2.572530e-01 0.000000e+00
1.055820e+00 2.914630e-01 0.000000e+00
4.646966e-02 6.727121e-02 0.000000e+00
4.728021e-02 3.396484e-02 0.000000e+00
9.315087e-02 6.887607e-02 0.000000e+00
9.467819e-02 3.553515e-02 0.000000e+00
1.874550e-01 7.507940e-02 0.000000e+00
1.900966e-01 4.185073e-02 0.000000e+00
2.346617e-01 7.977458e-02 0.000000e+00
2.378364e-01 4.659000e-02 0.000000e+00
1.402279e-01 7.144585e-02 0.000000e+00
1.423509e-01 3.817123e-02 0.000000e+00
3.286941e-01 9.230603e-02 0.000000e+00
3.329138e-01 5.922856e-02 0.000000e+00
3.754770e-01 1.001359e-01 0.000000e+00
3.802130e-01 6.712113e-02 0.000000e+00
4.684500e-01 1.188990e-01 0.000000e+00
4.742275e-01 8.603364e-02 0.000000e+00
5.146039e-01 1.298185e-01 0.000000e+00
5.209027e-01 9.703927e-02 0.000000e+00
4.220712e-01 1.090018e-01 0.000000e+00
4.273250e-01 7.605749e-02 0.000000e+00
2.817472e-01 8.551747e-02 0.000000e+00
2.854473e-01 5.238356e-02 0.000000e+00
5.083510e-01 1.624574e-01 0.000000e+00
4.627437e-01 1.516181e-01 0.000000e+00
4.168844e-01 1.417951e-01 0.000000e+00
3.707901e-01 1.329938e-01 0.000000e+00
3.245088e-01 1.252245e-01 0.000000e+00
2.780776e-01 1.184928e-01 0.000000e+00
2.315154e-01 1.128008e-01 0.000000e+00
1.848412e-01 1.081503e-01 0.000000e+00
1.380737e-01 1.045433e-01 0.000000e+00
9.123177e-02 1.019817e-01 0.000000e+00
4.433436e-02 1.004675e-01 0.000000e+00
-5.616103e-10 1.000000e-01 0.000000e+00
-4.052744e-10 6.666667e-02 0.000000e+00
-2.489386e-10 3.333334e-02 0.000000e+00
-9.260281e-11 4.690078e-10 0.000000e+00
4.731517e-02 5.083367e-04 0.000000e+00
9.590395e-02 2.091274e-03 0.000000e+00
1.443942e-01 4.743743e-03 0.000000e+00
1.927824e-01 8.463030e-03 0.000000e+00
2.410540e-01 1.324616e-02 0.000000e+00
2.891914e-01 1.909013e-02 0.000000e+00
3.371774e-01 2.599190e-02 0.000000e+00
3.849946e-01 3.394846e-02 0.000000e+00
4.326257e-01 4.295680e-02 0.000000e+00
4.800532e-01 5.301389e-02 0.000000e+00
5.272599e-01 6.411672e-02 0.000000e+00
5.742285e-01 7.626226e-02 0.000000e+00
5.673821e-01 1.089441e-01 0.000000e+00
5.605358e-01 1.416260e-01 0.000000e+00
5.536894e-01 1.743079e-01 0.000000e+00
6.950328e-01 2.183519e-01 0.000000e+00
7.298617e-01 2.309135e-01 0.000000e+00
7.644713e-01 2.440902e-01 0.000000e+00
7.988535e-01 2.578794e-01 0.000000e+00
8.330001e-01 2.722784e-01 0.000000e+00
8.669029e-01 2.872848e-01 0.000000e+00
9.005638e-01 3.029009e-01 0.000000e+00
9.339610e-01 3.191172e-01 0.000000e+00
9.659660e-01 3.353527e-01 0.000000e+00
9.959172e-01 3.207228e-01 0.000000e+00
1.025868e+00 3.060929e-01 0.000000e+00
7.862377e-01 2.165263e-01 0.000000e+00
8.076982e-01 1.892287e-01 0.000000e+00
6.744549e-01 1.757516e-01 0.000000e+00
6.887421e-01 1.454088e-01 0.000000e+00
5.987623e-01 1.520945e-01 0.000000e+00
6.080905e-01 1.201213e-01 0.000000e+00
6.367124e-01 1.635600e-01 0.000000e+00
6.485423e-01 1.323625e-01 0.000000e+00
7.119638e-01 1.886458e-01 0.000000e+00
7.286776e-01 1.592388e-01 0.000000e+00
7.492286e-01 2.022387e-01 0.000000e+00
7.683342e-01 1.738470e-01 0.000000e+00
8.954464e-01 2.634740e-01 0.000000e+00
9.237204e-01 2.398722e-01 0.000000e+00
8.229806e-01 2.315049e-01 0.000000e+00
8.467575e-01 2.053789e-01 0.000000e+00
8.594505e-01 2.471721e-01 0.000000e+00
8.855022e-01 2.222945e-01 0.000000e+00
9.309608e-01 2.805977e-01 0.000000e+00
9.614295e-01 2.584921e-01 0.000000e+00
9.647551e-01 2.990854e-01 0.000000e+00
9.966211e-01 2.795249e-01 0.000000e+00
9.832746e-01 5.003747e-01 0.000000e+00
1.017554e+00 4.925055e-01 0.000000e+00
9.607424e-01 7.256970e-01 0.000000e+00
9.941173e-01 7.268708e-01 0.000000e+00
9.517295e-01 8.158259e-01 0.000000e+00
9.847427e-01 8.206169e-01 0.000000e+00
9.562360e-01 7.707614e-01 0.000000e+00
9.894300e-01 7.737439e-01 0.000000e+00
9.427167e-01 9.059548e-01 0.000000e+00
9.753681e-01 9.143630e-01 0.000000e+00
9.381970e-01 9.510018e-01 0.000000e+00
9.706655e-01 9.612392e-01 0.000000e+00
9.472231e-01 8.608903e-01 0.000000e+00
9.800554e-01 8.674900e-01 0.000000e+00
9.652489e-01 6.806325e-01 0.000000e+00
9.988046e-01 6.799977e-01 0.000000e+00
9.054308e-01 9.407044e-01 0.000000e+00
9.097548e-01 8.974650e-01 0.000000e+00
9.140787e-01 8.542256e-01 0.000000e+00
9.184026e-01 8.109862e-01 0.000000e+00
9.227266e-01 7.677467e-01 0.000000e+00
9.270505e-01 7.245073e-01 0.000000e+00
9.313744e-01 6.812679e-01 0.000000e+00
9.356984e-01 6.380286e-01 0.000000e+00
9.400223e-01 5.947891e-01 0.000000e+00
9.443462e-01 5.515497e-01 0.000000e+00
9.486702e-01 5.083103e-01 0.000000e+00
9.529942e-01 4.650709e-01 0.000000e+00
9.573181e-01 4.218315e-01 0.000000e+00
9.616420e-01 3.785921e-01 0.000000e+00
1.065894e+00 3.391660e-01 0.000000e+00
1.061263e+00 3.873650e-01 0.000000e+00
1.056397e+00 4.360314e-01 0.000000e+00
1.051530e+00 4.846978e-01 0.000000e+00
1.046664e+00 5.333642e-01 0.000000e+00
1.041797e+00 5.820306e-01 0.000000e+00
1.036930e+00 6.306970e-01 0.000000e+00
1.032064e+00 6.793634e-01 0.000000e+00
1.027197e+00 7.280298e-01 0.000000e+00
1.022330e+00 7.766961e-01 0.000000e+00
1.017464e+00 8.253626e-01 0.000000e+00
1.012597e+00 8.740290e-01 0.000000e+00
1.007730e+00 9.226953e-01 0.000000e+00
1.002864e+00 9.713618e-01 0.000000e+00
9.979972e-01 1.020028e+00 0.000000e+00
9.657004e-01 1.008000e+00 0.000000e+00
9.334036e-01 9.959719e-01 0.000000e+00
9.011068e-01 9.839438e-01 0.000000e+00
1.008179e+00 5.862516e-01 0.000000e+00
9.742618e-01 5.905036e-01 0.000000e+00
1.003492e+00 6.331247e-01 0.000000e+00
9.697553e-01 6.355681e-01 0.000000e+00
1.012866e+00 5.393786e-01 0.000000e+00
9.787682e-01 5.454391e-01 0.000000e+00
1.026855e+00 3.985491e-01 0.000000e+00
9.921783e-01 4.102590e-01 0.000000e+00
1.022238e+00 4.456608e-01 0.000000e+00
9.877746e-01 4.553316e-01 0.000000e+00
1.029686e+00 3.517213e-01 0.000000e+00
9.955412e-01 3.654770e-01 0.000000e+00
8.254362e-01 1.698992e+00 0.000000e+00
8.567405e-01 1.710853e+00 0.000000e+00
8.880449e-01 1.722715e+00 0.000000e+00
9.193493e-01 1.734577e+00 0.000000e+00
9.306014e-01 1.684866e+00 0.000000e+00
9.366484e-01 1.633516e+00 0.000000e+00
9.417608e-01 1.582392e+00 0.000000e+00
9.468732e-01 1.531268e+00 0.000000e+00
9.519856e-01 1.480144e+00 0.000000e+00
9.570979e-01 1.429020e+00 0.000000e+00
9.622104e-01 1.377896e+00 0.000000e+00
9.673228e-01 1.326772e+00 0.000000e+00
9.724352e-01 1.275648e+00 0.000000e+00
9.775476e-01 1.224524e+00 0.000000e+00
9.826600e-01 1.173400e+00 0.000000e+00
9.877724e-01 1.122276e+00 0.000000e+00
9.928848e-01 1.071152e+00 0.000000e+00
8.959947e-01 1.035066e+00 0.000000e+00
8.908824e-01 1.086188e+00 0.000000e+00
8.857702e-01 1.137310e+00 0.000000e+00
8.806580e-01 1.188432e+00 0.000000e+00
8.755458e-01 1.239554e+00 0.000000e+00
8.704336e-01 1.290677e+00 0.000000e+00
8.653214e-01 1.341799e+00 0.000000e+00
8.602092e-01 1.392921e+00 0.000000e+00
8.550969e-01 1.444043e+00 0.000000e+00
8.499848e-01 1.495165e+00 0.000000e+00
8.448725e-01 1.546287e+00 0.000000e+00
8.397603e-01 1.597409e+00 0.000000e+00
8.346480e-01 1.648485e+00 0.000000e+00
9.299141e-01 1.365864e+00 0.000000e+00
8.976178e-01 1.353831e+00 0.000000e+00
9.094570e-01 1.570399e+00 0.000000e+00
8.771641e-01 1.558336e+00 0.000000e+00
8.976178e-01 1.672536e+00 0.000000e+00
8.656615e-01 1.660516e+00 0.000000e+00
9.041761e-01 1.621652e+00 0.000000e+00
8.719357e-01 1.609471e+00 0.000000e+00
9.196894e-01 1.468110e+00 0.000000e+00
8.873932e-01 1.456077e+00 0.000000e+00
9.145771e-01 1.519234e+00 0.000000e+00
8.822809e-01 1.507200e+00 0.000000e+00
9.248018e-01 1.416987e+00 0.000000e+00
8.925055e-01 1.404954e+00 0.000000e+00
9.452511e-01 1.212494e+00 0.000000e+00
9.129546e-01 1.200463e+00 0.000000e+00
9.350265e-01 1.314740e+00 0.000000e+00
9.027300e-01 1.302709e+00 0.000000e+00
9.401388e-01 1.263617e+00 0.000000e+00
9.078423e-01 1.251586e+00 0.000000e+00
9.554758e-01 1.110247e+00 0.000000e+00
9.231791e-01 1.098217e+00 0.000000e+00
9.503635e-01 1.161370e+00 0.000000e+00
9.180669e-01 1.149340e+00 0.000000e+00
9.605882e-01 1.059123e+00 0.000000e+00
9.282914e-01 1.047095e+00 0.000000e+00
-5.616034e-10 2.061187e+00 0.000000e+00
5.000000e-02 2.060068e+00 0.000000e+00
1.000000e-01 2.058949e+00 0.000000e+00
1.500000e-01 2.057831e+00 0.000000e+00
2.000000e-01 2.056712e+00 0.000000e+00
2.500000e-01 2.055593e+00 0.000000e+00
3.000000e-01 2.054475e+00 0.000000e+00
3.500000e-01 2.053356e+00 0.000000e+00
4.000000e-01 2.052237e+00 0.000000e+00
4.500000e-01 2.051119e+00 0.000000e+00
5.000000e-01 2.050000e+00 0.000000e+00
5.000000e-01 2.016667e+00 0.000000e+00
5.000000e-01 1.983333e+00 0.000000e+00
5.000000e-01 1.950000e+00 0.000000e+00
4.500000e-01 1.950000e+00 0.000000e+00
4.000000e-01 1.950000e+00 0.000000e+00
3.500000e-01 1.950000e+00 0.000000e+00
3.000000e-01 1.950000e+00 0.000000e+00
2.500000e-01 1.950000e+00 0.000000e+00
2.000000e-01 1.950000e+00 0.000000e+00
1.500000e-01 1.950000e+00 0.000000e+00
1.000000e-01 1.950000e+00 0.000000e+00
5.000000e-02 1.950000e+00 0.000000e+00
-5.616038e-10 1.950000e+00 0.000000e+00
-5.616037e-10 1.987062e+00 0.000000e+00
-5.616035e-10 2.024124e+00 0.000000e+00
2.498524e-01 1.985199e+00 0.000000e+00
2.498524e-01 2.020397e+00 0.000000e+00
3.998476e-01 1.984080e+00 0.000000e+00
3.998476e-01 2.018160e+00 0.000000e+00
4.498775e-01 1.983709e+00 0.000000e+00
4.498775e-01 2.017412e+00 0.000000e+00
3.498493e-01 1.984453e+00 0.000000e+00
3.498493e-01 2.018906e+00 0.000000e+00
2.998509e-01 1.984826e+00 0.000000e+00
2.998509e-01 2.019652e+00 0.000000e+00
[...]
POINT_DATA     938
VECTORS DISPLACEMENT_2.000000e-01 double
7.260916e-09    6.077309e-08    0.000000e+00
7.893871e-09    5.730599e-08    0.000000e+00
6.644374e-09    6.432159e-08    0.000000e+00
-2.435237e-09    6.144474e-08    0.000000e+00
-1.457252e-09    5.728608e-08    0.000000e+00
-3.848838e-10    5.327432e-08    0.000000e+00
7.705927e-10    4.944826e-08    0.000000e+00
1.995339e-09    4.585212e-08    0.000000e+00
3.271383e-09    4.253735e-08    0.000000e+00
4.576228e-09    3.956459e-08    0.000000e+00
5.880362e-09    3.700338e-08    0.000000e+00
7.148069e-09    3.494343e-08    0.000000e+00
8.297336e-09    3.352399e-08    0.000000e+00
9.101073e-09    3.277635e-08    0.000000e+00
9.813130e-09    3.248755e-08    0.000000e+00
-3.659484e-11    1.115322e-07    0.000000e+00
-7.302044e-10    1.112956e-07    0.000000e+00
-1.377025e-10    1.095513e-07    0.000000e+00
-1.509465e-09    1.092151e-07    0.000000e+00
-2.540429e-10    1.033280e-07    0.000000e+00
-2.545344e-09    1.028929e-07    0.000000e+00
-2.075820e-10    9.943761e-08    0.000000e+00
-2.802445e-09    9.895309e-08    0.000000e+00
-2.233005e-10    1.067502e-07    0.000000e+00
-2.113483e-09    1.063621e-07    0.000000e+00
1.692036e-10    9.073962e-08    0.000000e+00
-2.803168e-09    9.016265e-08    0.000000e+00
5.129778e-10    8.611641e-08    0.000000e+00
-2.560512e-09    8.549842e-08    0.000000e+00
1.515083e-09    7.666215e-08    0.000000e+00
-1.635146e-09    7.597393e-08    0.000000e+00
2.165758e-09    7.192981e-08    0.000000e+00
-9.733814e-10    7.121384e-08    0.000000e+00
9.623589e-10    8.140558e-08    0.000000e+00
-2.167845e-09    8.075048e-08    0.000000e+00
-6.955070e-11    9.520776e-08    0.000000e+00
-2.886485e-09    9.467552e-08    0.000000e+00
5.357928e-09    7.257458e-08    0.000000e+00
4.725593e-09    7.725877e-08    0.000000e+00
4.161559e-09    8.194944e-08    0.000000e+00
3.665172e-09    8.660167e-08    0.000000e+00
3.231117e-09    9.115775e-08    0.000000e+00
2.848435e-09    9.554873e-08    0.000000e+00
2.499799e-09    9.969208e-08    0.000000e+00
2.160500e-09    1.034868e-07    0.000000e+00
1.796264e-09    1.068107e-07    0.000000e+00
1.356799e-09    1.095141e-07    0.000000e+00
7.635207e-10    1.113847e-07    0.000000e+00
9.398301e-12    1.120750e-07    0.000000e+00
-1.642287e-11    1.124071e-07    0.000000e+00
2.603588e-11    1.126157e-07    0.000000e+00
-6.064086e-10    1.141094e-07    0.000000e+00
-1.665237e-09    1.108680e-07    0.000000e+00
-3.024816e-09    1.086258e-07    0.000000e+00
-4.100898e-09    1.057230e-07    0.000000e+00
-4.910490e-09    1.022276e-07    0.000000e+00
-5.451762e-09    9.826979e-08    0.000000e+00
-5.744001e-09    9.397374e-08    0.000000e+00
-5.805874e-09    8.944231e-08    0.000000e+00
-5.657108e-09    8.475979e-08    0.000000e+00
-5.316504e-09    7.999448e-08    0.000000e+00
-4.801460e-09    7.520190e-08    0.000000e+00
-4.127666e-09    7.042812e-08    0.000000e+00
-3.308781e-09    6.571359e-08    0.000000e+00
-2.053372e-10    6.650391e-08    0.000000e+00
2.894778e-09    6.724420e-08    0.000000e+00
6.054903e-09    6.793470e-08    0.000000e+00
8.530221e-09    5.393905e-08    0.000000e+00
9.153860e-09    5.069319e-08    0.000000e+00
9.745258e-09    4.759203e-08    0.000000e+00
1.028096e-08    4.466255e-08    0.000000e+00
1.073322e-08    4.193537e-08    0.000000e+00
1.107125e-08    3.944595e-08    0.000000e+00
1.125430e-08    3.722895e-08    0.000000e+00
1.132512e-08    3.528687e-08    0.000000e+00
1.092431e-08    3.348754e-08    0.000000e+00
1.063982e-08    3.308536e-08    0.000000e+00
1.020532e-08    3.279337e-08    0.000000e+00
7.464414e-09    4.578370e-08    0.000000e+00
5.340675e-09    4.410627e-08    0.000000e+00
5.055906e-09    5.594203e-08    0.000000e+00
2.322547e-09    5.460162e-08    0.000000e+00
3.550300e-09    6.338650e-08    0.000000e+00
5.473593e-10    6.243033e-08    0.000000e+00
4.282726e-09    5.961475e-08    0.000000e+00
1.401361e-09    5.845464e-08    0.000000e+00
5.855261e-09    5.239381e-08    0.000000e+00
3.297090e-09    5.090157e-08    0.000000e+00
6.664719e-09    4.899729e-08    0.000000e+00
4.309566e-09    4.738961e-08    0.000000e+00
9.538380e-09    3.763922e-08    0.000000e+00
8.267755e-09    3.614523e-08    0.000000e+00
8.230478e-09    4.278919e-08    0.000000e+00
6.366379e-09    4.109855e-08    0.000000e+00
8.932171e-09    4.005372e-08    0.000000e+00
7.356048e-09    3.841931e-08    0.000000e+00
1.000036e-08    3.556780e-08    0.000000e+00
9.072659e-09    3.435427e-08    0.000000e+00
1.040134e-08    3.399452e-08    0.000000e+00
9.732369e-09    3.324458e-08    0.000000e+00
8.093282e-09    3.139681e-08    0.000000e+00
8.262619e-09    3.219534e-08    0.000000e+00
2.949983e-09    2.989657e-08    0.000000e+00
2.944662e-09    3.047806e-08    0.000000e+00
1.681123e-09    2.950760e-08    0.000000e+00
1.654508e-09    2.989269e-08    0.000000e+00
2.250851e-09    2.969204e-08    0.000000e+00
2.230351e-09    3.017394e-08    0.000000e+00
8.930204e-10    2.918242e-08    0.000000e+00
8.755755e-10    2.939463e-08    0.000000e+00
6.509681e-10    2.903522e-08    0.000000e+00
6.457093e-10    2.917309e-08    0.000000e+00
1.232328e-09    2.933893e-08    0.000000e+00
1.207261e-09    2.963357e-08    0.000000e+00
3.781362e-09    3.012607e-08    0.000000e+00
3.801011e-09    3.080396e-08    0.000000e+00
6.819649e-10    2.888140e-08    0.000000e+00
9.379592e-10    2.895714e-08    0.000000e+00
1.286448e-09    2.903437e-08    0.000000e+00
1.738023e-09    2.911595e-08    0.000000e+00
2.302211e-09    2.920664e-08    0.000000e+00
2.985670e-09    2.931328e-08    0.000000e+00
3.789972e-09    2.944507e-08    0.000000e+00
4.708932e-09    2.961365e-08    0.000000e+00
5.725522e-09    2.983323e-08    0.000000e+00
6.808364e-09    3.012031e-08    0.000000e+00
7.907564e-09    3.049405e-08    0.000000e+00
8.952290e-09    3.097193e-08    0.000000e+00
9.839958e-09    3.158329e-08    0.000000e+00
1.052226e-08    3.228425e-08    0.000000e+00
1.030164e-08    3.266261e-08    0.000000e+00
1.018288e-08    3.297249e-08    0.000000e+00
9.446425e-09    3.309967e-08    0.000000e+00
8.386572e-09    3.298051e-08    0.000000e+00
7.197924e-09    3.271127e-08    0.000000e+00
5.996957e-09    3.234607e-08    0.000000e+00
4.862795e-09    3.192944e-08    0.000000e+00
3.844278e-09    3.149384e-08    0.000000e+00
2.966838e-09    3.106218e-08    0.000000e+00
2.238759e-09    3.064936e-08    0.000000e+00
1.656576e-09    3.026379e-08    0.000000e+00
1.209652e-09    2.990886e-08    0.000000e+00
8.838817e-10    2.958425e-08    0.000000e+00
6.645710e-10    2.928704e-08    0.000000e+00
5.385822e-10    2.901266e-08    0.000000e+00
5.050417e-10    2.896572e-08    0.000000e+00
4.944725e-10    2.889458e-08    0.000000e+00
5.082234e-10    2.880584e-08    0.000000e+00
5.898747e-09    3.150299e-08    0.000000e+00
5.804223e-09    3.068105e-08    0.000000e+00
4.792801e-09    3.114795e-08    0.000000e+00
4.738986e-09    3.038578e-08    0.000000e+00
7.077514e-09    3.185751e-08    0.000000e+00
6.941488e-09    3.101633e-08    0.000000e+00
1.021542e-08    3.272061e-08    0.000000e+00
1.007391e-08    3.230307e-08    0.000000e+00
9.353399e-09    3.249265e-08    0.000000e+00
9.175356e-09    3.181921e-08    0.000000e+00
1.057920e-08    3.279927e-08    0.000000e+00
1.066558e-08    3.275958e-08    0.000000e+00
7.255338e-09    2.693996e-08    0.000000e+00
7.381130e-09    2.670512e-08    0.000000e+00
7.402554e-09    2.652993e-08    0.000000e+00
7.371181e-09    2.632477e-08    0.000000e+00
6.894975e-09    2.621343e-08    0.000000e+00
6.143369e-09    2.621703e-08    0.000000e+00
5.257948e-09    2.632120e-08    0.000000e+00
4.352889e-09    2.649692e-08    0.000000e+00
3.503125e-09    2.671750e-08    0.000000e+00
2.749467e-09    2.696307e-08    0.000000e+00
2.110256e-09    2.721961e-08    0.000000e+00
1.588946e-09    2.747816e-08    0.000000e+00
1.180218e-09    2.773400e-08    0.000000e+00
8.747996e-10    2.798589e-08    0.000000e+00
6.631033e-10    2.823534e-08    0.000000e+00
5.378385e-10    2.848598e-08    0.000000e+00
4.957506e-10    2.874303e-08    0.000000e+00
3.969577e-10    2.871677e-08    0.000000e+00
3.777743e-10    2.862962e-08    0.000000e+00
4.451759e-10    2.854721e-08    0.000000e+00
5.990848e-10    2.847271e-08    0.000000e+00
8.443698e-10    2.840872e-08    0.000000e+00
1.189646e-09    2.835634e-08    0.000000e+00
1.645229e-09    2.831392e-08    0.000000e+00
2.220148e-09    2.827578e-08    0.000000e+00
2.918021e-09    2.823067e-08    0.000000e+00
3.731712e-09    2.816017e-08    0.000000e+00
4.636482e-09    2.803672e-08    0.000000e+00
5.583228e-09    2.782380e-08    0.000000e+00
6.495043e-09    2.746417e-08    0.000000e+00
1.931803e-09    2.760376e-08    0.000000e+00
1.776472e-09    2.796861e-08    0.000000e+00
5.058368e-09    2.689381e-08    0.000000e+00
4.849602e-09    2.744833e-08    0.000000e+00
6.818883e-09    2.661519e-08    0.000000e+00
6.691759e-09    2.699894e-08    0.000000e+00
5.990986e-09    2.673807e-08    0.000000e+00
5.800877e-09    2.724749e-08    0.000000e+00
3.290336e-09    2.723861e-08    0.000000e+00
3.094690e-09    2.773741e-08    0.000000e+00
4.137095e-09    2.706250e-08    0.000000e+00
3.929219e-09    2.760627e-08    0.000000e+00
2.550884e-09    2.741970e-08    0.000000e+00
2.374000e-09    2.785517e-08    0.000000e+00
7.625671e-10    2.816501e-08    0.000000e+00
6.704738e-10    2.832856e-08    0.000000e+00
1.432906e-09    2.778954e-08    0.000000e+00
1.299569e-09    2.808348e-08    0.000000e+00
1.046627e-09    2.797653e-08    0.000000e+00
9.344838e-10    2.820298e-08    0.000000e+00
4.647676e-10    2.855137e-08    0.000000e+00
4.111385e-10    2.859895e-08    0.000000e+00
5.708996e-10    2.835603e-08    0.000000e+00
4.980405e-10    2.846059e-08    0.000000e+00
4.418289e-10    2.875356e-08    0.000000e+00
4.085434e-10    2.874352e-08    0.000000e+00
-1.120430e-13    -9.328200e-11    0.000000e+00
-1.254305e-11    -1.002691e-10    0.000000e+00
-2.769981e-11    -1.195728e-10    0.000000e+00
-4.865267e-11    -1.492016e-10    0.000000e+00
-7.953276e-11    -1.830678e-10    0.000000e+00
-1.266558e-10    -2.064341e-10    0.000000e+00
-2.016921e-10    -1.870908e-10    0.000000e+00
-3.260052e-10    -6.383199e-11    0.000000e+00
-5.520348e-10    2.815679e-10    0.000000e+00
-9.004921e-10    1.016331e-09    0.000000e+00
-1.739252e-09    2.526925e-09    0.000000e+00
-6.101963e-10    2.740493e-09    0.000000e+00
9.453135e-10    2.888545e-09    0.000000e+00
2.717428e-09    3.135963e-09    0.000000e+00
1.672834e-09    1.142767e-09    0.000000e+00
9.372970e-10    2.826456e-10    0.000000e+00
5.013619e-10    -6.549666e-11    0.000000e+00
2.499368e-10    -1.930664e-10    0.000000e+00
1.066033e-10    -2.209140e-10    0.000000e+00
3.047215e-11    -2.056763e-10    0.000000e+00
-4.155263e-12    -1.768769e-10    0.000000e+00
-1.390615e-11    -1.497299e-10    0.000000e+00
-9.942448e-12    -1.314914e-10    0.000000e+00
3.759643e-13    -1.253699e-10    0.000000e+00
1.961828e-13    -1.194752e-10    0.000000e+00
5.176646e-14    -1.104900e-10    0.000000e+00
6.430143e-11    -2.493507e-10    0.000000e+00
-2.961802e-11    -2.460607e-10    0.000000e+00
4.297332e-10    1.515355e-10    0.000000e+00
-1.513612e-10    1.652207e-10    0.000000e+00
6.540030e-10    9.278317e-10    0.000000e+00
-3.490097e-10    9.096917e-10    0.000000e+00
2.600884e-10    -1.473938e-10    0.000000e+00
-6.343215e-11    -1.419631e-10    0.000000e+00
1.403503e-10    -2.433751e-10    0.000000e+00
-3.734610e-11    -2.410399e-10    0.000000e+00
-4.493501e-13    -1.810193e-10    0.000000e+00
-2.112685e-11    -1.737942e-10    0.000000e+00
2.061054e-11    -2.193825e-10    0.000000e+00
-2.585847e-11    -2.138600e-10    0.000000e+00
-7.077815e-12    -1.480818e-10    0.000000e+00
-1.493398e-11    -1.398629e-10    0.000000e+00
-5.384810e-12    -1.267773e-10    0.000000e+00
-7.711078e-12    -1.180677e-10    0.000000e+00
-3.327582e-09    7.166159e-09    0.000000e+00
-3.072474e-09    1.197292e-08    0.000000e+00
-1.826156e-09    1.650474e-08    0.000000e+00
1.017263e-10    2.029455e-08    0.000000e+00
2.249965e-09    2.312014e-08    0.000000e+00
4.270389e-09    2.498689e-08    0.000000e+00
5.900067e-09    2.602634e-08    0.000000e+00
6.977398e-09    2.644095e-08    0.000000e+00
7.456614e-09    2.646676e-08    0.000000e+00
7.685347e-09    2.630365e-08    0.000000e+00
7.844176e-09    2.540818e-08    0.000000e+00
7.714867e-09    2.413952e-08    0.000000e+00
7.317573e-09    2.238633e-08    0.000000e+00
6.706656e-09    2.005870e-08    0.000000e+00
5.971192e-09    1.715209e-08    0.000000e+00
5.197845e-09    1.373397e-08    0.000000e+00
4.436021e-09    9.978688e-09    0.000000e+00
3.641859e-09    6.228438e-09    0.000000e+00
3.852201e-09    2.212297e-08    0.000000e+00
5.324288e-09    2.113025e-08    0.000000e+00
-4.649878e-10    1.121403e-08    0.000000e+00
1.909053e-09    1.055269e-08    0.000000e+00
-8.508553e-10    6.732116e-09    0.000000e+00
1.306691e-09    6.343138e-09    0.000000e+00
6.178719e-10    1.554019e-08    0.000000e+00
2.875916e-09    1.465129e-08    0.000000e+00
2.165250e-09    1.924642e-08    0.000000e+00
4.079494e-09    1.823777e-08    0.000000e+00
6.619621e-09    2.542022e-08    0.000000e+00
7.241933e-09    2.479044e-08    0.000000e+00
5.405777e-09    2.414739e-08    0.000000e+00
6.426641e-09    2.329203e-08    0.000000e+00
7.372893e-09    2.611291e-08    0.000000e+00
7.682776e-09    2.575548e-08    0.000000e+00
7.624797e-09    2.642153e-08    0.000000e+00
7.720803e-09    2.634462e-08    0.000000e+00
0.000000e+00    0.000000e+00    0.000000e+00
0.000000e+00    0.000000e+00    0.000000e+00
0.000000e+00    0.000000e+00    0.000000e+00
0.000000e+00    0.000000e+00    0.000000e+00
0.000000e+00    0.000000e+00    0.000000e+00
0.000000e+00    0.000000e+00    0.000000e+00
0.000000e+00    0.000000e+00    0.000000e+00
0.000000e+00    0.000000e+00    0.000000e+00
0.000000e+00    0.000000e+00    0.000000e+00
0.000000e+00    0.000000e+00    0.000000e+00
0.000000e+00    0.000000e+00    0.000000e+00
-1.978797e-10    3.749528e-10    0.000000e+00
-4.760686e-10    8.090800e-10    0.000000e+00
-8.046289e-10    1.308242e-09    0.000000e+00
-2.041036e-13    -6.989285e-11    0.000000e+00
-2.021625e-13    -4.316159e-11    0.000000e+00
-1.060623e-13    -1.829128e-11    0.000000e+00
-1.777863e-10    -1.419809e-10    0.000000e+00
-1.695694e-10    -7.433847e-11    0.000000e+00
-1.050947e-10    -2.192855e-11    0.000000e+00
-6.208964e-10    2.703805e-10    0.000000e+00
-5.040570e-10    2.106141e-10    0.000000e+00
-2.965837e-10    1.082473e-10    0.000000e+00
-5.717029e-10    5.225777e-10    0.000000e+00
-7.855564e-10    7.597170e-10    0.000000e+00
-2.983320e-10    2.373820e-10    0.000000e+00
-2.630428e-10    -5.013109e-11    0.000000e+00
-3.798814e-10    2.915238e-11    0.000000e+00
-2.802599e-10    -1.166591e-10    0.000000e+00
-4.215381e-10    -6.716676e-12    0.000000e+00
-1.629770e-10    -6.661239e-12    0.000000e+00
-2.334311e-10    3.187116e-11    0.000000e+00
-6.400901e-11    -1.087280e-10    0.000000e+00
-6.011369e-11    -6.347882e-11    0.000000e+00
-3.646439e-11    -2.411987e-11    0.000000e+00
-1.038440e-10    -7.315384e-11    0.000000e+00
-1.092077e-10    -1.305643e-10    0.000000e+00
-6.377854e-11    -2.546373e-11    0.000000e+00
-1.377138e-11    -4.611784e-11    0.000000e+00
-3.211521e-11    -5.327825e-11    0.000000e+00
-1.515633e-11    -7.504760e-11    0.000000e+00
-3.478441e-11    -8.852934e-11    0.000000e+00
-8.129817e-12    -1.933850e-11    0.000000e+00
-1.920154e-11    -2.148759e-11    0.000000e+00
4.463304e-09    6.759452e-08    0.000000e+00
5.711369e-09    7.025085e-08    0.000000e+00
6.353478e-09    6.612365e-08    0.000000e+00
1.341281e-09    6.688075e-08    0.000000e+00
2.531720e-09    6.958129e-08    0.000000e+00
3.224310e-09    6.530862e-08    0.000000e+00
-1.753365e-09    6.611700e-08    0.000000e+00
-5.917555e-10    6.885589e-08    0.000000e+00
1.698498e-10    6.446197e-08    0.000000e+00
-3.721472e-09    6.805452e-08    0.000000e+00
-2.873528e-09    6.356233e-08    0.000000e+00
-4.469359e-09    7.280254e-08    0.000000e+00
-2.546621e-09    7.083102e-08    0.000000e+00
-5.065570e-09    7.758973e-08    0.000000e+00
-3.213964e-09    7.559986e-08    0.000000e+00
-5.495523e-09    8.237340e-08    0.000000e+00
-3.736853e-09    8.038666e-08    0.000000e+00
-5.742666e-09    8.710300e-08    0.000000e+00
-4.102018e-09    8.514591e-08    0.000000e+00
-5.788857e-09    9.171685e-08    0.000000e+00
-4.295714e-09    8.982235e-08    0.000000e+00
-5.614771e-09    9.613876e-08    0.000000e+00
-4.303776e-09    9.434810e-08    0.000000e+00
-5.200932e-09    1.002745e-07    0.000000e+00
-4.112368e-09    9.863910e-08    0.000000e+00
-4.528394e-09    1.040100e-07    0.000000e+00
-3.708549e-09    1.025926e-07    0.000000e+00
-3.584623e-09    1.072067e-07    0.000000e+00
-3.083957e-09    1.060808e-07    0.000000e+00
-2.366436e-09    1.097325e-07    0.000000e+00
-2.230964e-09    1.089619e-07    0.000000e+00
-9.804610e-10    1.117168e-07    0.000000e+00
-1.166305e-09    1.111435e-07    0.000000e+00
1.317145e-10    1.133829e-07    0.000000e+00
2.210542e-11    1.125034e-07    0.000000e+00
-3.491155e-10    1.121136e-07    0.000000e+00
-1.111006e-11    1.122856e-07    0.000000e+00
2.261990e-12    1.121174e-07    0.000000e+00
4.026145e-10    1.118793e-07    0.000000e+00
1.088988e-09    1.105729e-07    0.000000e+00
3.314081e-10    1.115169e-07    0.000000e+00
1.598056e-09    1.082530e-07    0.000000e+00
5.729791e-10    1.095822e-07    0.000000e+00
1.993707e-09    1.052180e-07    0.000000e+00
7.533836e-10    1.068212e-07    0.000000e+00
2.341576e-09    1.016419e-07    0.000000e+00
9.235154e-10    1.034408e-07    0.000000e+00
2.682830e-09    9.765912e-08    0.000000e+00
1.119631e-09    9.959221e-08    0.000000e+00
3.046523e-09    9.338081e-08    0.000000e+00
1.366007e-09    9.540055e-08    0.000000e+00
3.453539e-09    8.889827e-08    0.000000e+00
1.679525e-09    9.096680e-08    0.000000e+00
3.917930e-09    8.428683e-08    0.000000e+00
2.070954e-09    8.637367e-08    0.000000e+00
4.447801e-09    7.960944e-08    0.000000e+00
2.546037e-09    8.168925e-08    0.000000e+00
5.046116e-09    7.491706e-08    0.000000e+00
3.106277e-09    7.696972e-08    0.000000e+00
3.749339e-09    7.225931e-08    0.000000e+00
-1.483485e-09    9.496458e-08    0.000000e+00
-2.854259e-09    9.245078e-08    0.000000e+00
-2.855490e-09    9.685841e-08    0.000000e+00
4.843798e-11    9.299853e-08    0.000000e+00
-1.399113e-10    9.735835e-08    0.000000e+00
-6.077826e-10    8.109115e-08    0.000000e+00
-1.906414e-09    7.836956e-08    0.000000e+00
-2.370508e-09    8.313827e-08    0.000000e+00
1.238545e-09    7.903707e-08    0.000000e+00
7.369075e-10    8.376996e-08    0.000000e+00
5.920505e-10    7.158045e-08    0.000000e+00
-1.307860e-09    7.359582e-08    0.000000e+00
1.841000e-09    7.429439e-08    0.000000e+00
-6.465632e-11    7.632876e-08    0.000000e+00
-1.029113e-09    8.582331e-08    0.000000e+00
-2.689683e-09    8.785231e-08    0.000000e+00
3.399142e-10    8.844407e-08    0.000000e+00
-1.322489e-09    9.047027e-08    0.000000e+00
-1.171411e-09    1.065941e-07    0.000000e+00
-2.343317e-09    1.047064e-07    0.000000e+00
-1.827608e-09    1.078913e-07    0.000000e+00
-2.389707e-10    1.051033e-07    0.000000e+00
-1.797560e-10    1.082331e-07    0.000000e+00
-1.510173e-09    9.922269e-08    0.000000e+00
-2.686494e-09    1.009826e-07    0.000000e+00
-2.317467e-10    1.014316e-07    0.000000e+00
-1.404090e-09    1.031429e-07    0.000000e+00
-8.217841e-10    1.094276e-07    0.000000e+00
-1.132728e-09    1.103886e-07    0.000000e+00
-8.354478e-11    1.106503e-07    0.000000e+00
-3.809414e-10    1.114620e-07    0.000000e+00
9.507395e-09    3.259997e-08    0.000000e+00
1.000455e-08    3.264574e-08    0.000000e+00
1.013166e-08    3.255065e-08    0.000000e+00
8.755869e-09    3.309075e-08    0.000000e+00
9.395930e-09    3.299160e-08    0.000000e+00
7.758791e-09    3.414142e-08    0.000000e+00
8.660996e-09    3.389070e-08    0.000000e+00