# vtk DataFile Version 3.0
"2D Beam with 400 elements"
ASCII
DATASET UNSTRUCTURED_GRID

POINTS     451 double
0.000000e+00 0.000000e+00 0.000000e+00
0.000000e+00 5.000000e-02 0.000000e+00
0.000000e+00 1.000000e-01 0.000000e+00
0.000000e+00 1.500000e-01 0.000000e+00
0.000000e+00 2.000000e-01 0.000000e+00
0.000000e+00 2.500000e-01 0.000000e+00
0.000000e+00 3.000000e-01 0.000000e+00
0.000000e+00 3.500000e-01 0.000000e+00
0.000000e+00 4.000000e-01 0.000000e+00
0.000000e+00 4.500000e-01 0.000000e+00
0.000000e+00 5.000000e-01 0.000000e+00
5.000000e-02 0.000000e+00 0.000000e+00
5.000000e-02 5.000000e-02 0.000000e+00
5.000000e-02 1.000000e-01 0.000000e+00
5.000000e-02 1.500000e-01 0.000000e+00
5.000000e-02 2.000000e-01 0.000000e+00
5.000000e-02 2.500000e-01 0.000000e+00
5.000000e-02 3.000000e-01 0.000000e+00
5.000000e-02 3.500000e-01 0.000000e+00
5.000000e-02 4.000000e-01 0.000000e+00
5.000000e-02 4.500000e-01 0.000000e+00
5.000000e-02 5.000000e-01 0.000000e+00
1.000000e-01 0.000000e+00 0.000000e+00
1.000000e-01 5.000000e-02 0.000000e+00
1.000000e-01 1.000000e-01 0.000000e+00
1.000000e-01 1.500000e-01 0.000000e+00
1.000000e-01 2.000000e-01 0.000000e+00
1.000000e-01 2.500000e-01 0.000000e+00
1.000000e-01 3.000000e-01 0.000000e+00
1.000000e-01 3.500000e-01 0.000000e+00
1.000000e-01 4.000000e-01 0.000000e+00
1.000000e-01 4.500000e-01 0.000000e+00
1.000000e-01 5.000000e-01 0.000000e+00
1.500000e-01 0.000000e+00 0.000000e+00
1.500000e-01 5.000000e-02 0.000000e+00
1.500000e-01 1.000000e-01 0.000000e+00
1.500000e-01 1.500000e-01 0.000000e+00
1.500000e-01 2.000000e-01 0.000000e+00
1.500000e-01 2.500000e-01 0.000000e+00
1.500000e-01 3.000000e-01 0.000000e+00
1.500000e-01 3.500000e-01 0.000000e+00
1.500000e-01 4.000000e-01 0.000000e+00
1.500000e-01 4.500000e-01 0.000000e+00
1.500000e-01 5.000000e-01 0.000000e+00
2.000000e-01 0.000000e+00 0.000000e+00
2.000000e-01 5.000000e-02 0.000000e+00
2.000000e-01 1.000000e-01 0.000000e+00
2.000000e-01 1.500000e-01 0.000000e+00
2.000000e-01 2.000000e-01 0.000000e+00
2.000000e-01 2.500000e-01 0.000000e+00
2.000000e-01 3.000000e-01 0.000000e+00
2.000000e-01 3.500000e-01 0.000000e+00
2.000000e-01 4.000000e-01 0.000000e+00
2.000000e-01 4.500000e-01 0.000000e+00
2.000000e-01 5.000000e-01 0.000000e+00
2.500000e-01 0.000000e+00 0.000000e+00
2.500000e-01 5.000000e-02 0.000000e+00
2.500000e-01 1.000000e-01 0.000000e+00
2.500000e-01 1.500000e-01 0.000000e+00
2.500000e-01 2.000000e-01 0.000000e+00
2.500000e-01 2.500000e-01 0.000000e+00
2.500000e-01 3.000000e-01 0.000000e+00
2.500000e-01 3.500000e-01 0.000000e+00
2.500000e-01 4.000000e-01 0.000000e+00
2.500000e-01 4.500000e-01 0.000000e+00
2.500000e-01 5.000000e-01 0.000000e+00
3.000000e-01 0.000000e+00 0.000000e+00
3.000000e-01 5.000000e-02 0.000000e+00
3.000000e-01 1.000000e-01 0.000000e+00
3.000000e-01 1.500000e-01 0.000000e+00
3.000000e-01 2.000000e-01 0.000000e+00
3.000000e-01 2.500000e-01 0.000000e+00
3.000000e-01 3.000000e-01 0.000000e+00
3.000000e-01 3.500000e-01 0.000000e+00
3.000000e-01 4.000000e-01 0.000000e+00
3.000000e-01 4.500000e-01 0.000000e+00
3.000000e-01 5.000000e-01 0.000000e+00
3.500000e-01 0.000000e+00 0.000000e+00
3.500000e-01 5.000000e-02 0.000000e+00
3.500000e-01 1.000000e-01 0.000000e+00
3.500000e-01 1.500000e-01 0.000000e+00
3.500000e-01 2.000000e-01 0.000000e+00
3.500000e-01 2.500000e-01 0.000000e+00
3.500000e-01 3.000000e-01 0.000000e+00
3.500000e-01 3.500000e-01 0.000000e+00
3.500000e-01 4.000000e-01 0.000000e+00
3.500000e-01 4.500000e-01 0.000000e+00
3.500000e-01 5.000000e-01 0.000000e+00
4.000000e-01 0.000000e+00 0.000000e+00
4.000000e-01 5.000000e-02 0.000000e+00
4.000000e-01 1.000000e-01 0.000000e+00
4.000000e-01 1.500000e-01 0.000000e+00
4.000000e-01 2.000000e-01 0.000000e+00
4.000000e-01 2.500000e-01 0.000000e+00
4.000000e-01 3.000000e-01 0.000000e+00
4.000000e-01 3.500000e-01 0.000000e+00
4.000000e-01 4.000000e-01 0.000000e+00
4.000000e-01 4.500000e-01 0.000000e+00
4.000000e-01 5.000000e-01 0.000000e+00
4.500000e-01 0.000000e+00 0.000000e+00
4.500000e-01 5.000000e-02 0.000000e+00
4.500000e-01 1.000000e-01 0.000000e+00
4.500000e-01 1.500000e-01 0.000000e+00
4.500000e-01 2.000000e-01 0.000000e+00
4.500000e-01 2.500000e-01 0.000000e+00
4.500000e-01 3.000000e-01 0.000000e+00
4.500000e-01 3.500000e-01 0.000000e+00
4.500000e-01 4.000000e-01 0.000000e+00
4.500000e-01 4.500000e-01 0.000000e+00
4.500000e-01 5.000000e-01 0.000000e+00
5.000000e-01 0.000000e+00 0.000000e+00
5.000000e-01 5.000000e-02 0.000000e+00
5.000000e-01 1.000000e-01 0.000000e+00
5.000000e-01 1.500000e-01 0.000000e+00
5.000000e-01 2.000000e-01 0.000000e+00
5.000000e-01 2.500000e-01 0.000000e+00
5.000000e-01 3.000000e-01 0.000000e+00
5.000000e-01 3.500000e-01 0.000000e+00
5.000000e-01 4.000000e-01 0.000000e+00
5.000000e-01 4.500000e-01 0.000000e+00
5.000000e-01 5.000000e-01 0.000000e+00
5.500000e-01 0.000000e+00 0.000000e+00
5.500000e-01 5.000000e-02 0.000000e+00
5.500000e-01 1.000000e-01 0.000000e+00
5.500000e-01 1.500000e-01 0.000000e+00
5.500000e-01 2.000000e-01 0.000000e+00
5.500000e-01 2.500000e-01 0.000000e+00
5.500000e-01 3.000000e-01 0.000000e+00
5.500000e-01 3.500000e-01 0.000000e+00
5.500000e-01 4.000000e-01 0.000000e+00
5.500000e-01 4.500000e-01 0.000000e+00
5.500000e-01 5.000000e-01 0.000000e+00
6.000000e-01 0.000000e+00 0.000000e+00
6.000000e-01 5.000000e-02 0.000000e+00
6.000000e-01 1.000000e-01 0.000000e+00
6.000000e-01 1.500000e-01 0.000000e+00
6.000000e-01 2.000000e-01 0.000000e+00
6.000000e-01 2.500000e-01 0.000000e+00
6.000000e-01 3.000000e-01 0.000000e+00
6.000000e-01 3.500000e-01 0.000000e+00
6.000000e-01 4.000000e-01 0.000000e+00
6.000000e-01 4.500000e-01 0.000000e+00
6.000000e-01 5.000000e-01 0.000000e+00
6.500000e-01 0.000000e+00 0.000000e+00
6.500000e-01 5.000000e-02 0.000000e+00
6.500000e-01 1.000000e-01 0.000000e+00
6.500000e-01 1.500000e-01 0.000000e+00
6.500000e-01 2.000000e-01 0.000000e+00
6.500000e-01 2.500000e-01 0.000000e+00
6.500000e-01 3.000000e-01 0.000000e+00
6.500000e-01 3.500000e-01 0.000000e+00
6.500000e-01 4.000000e-01 0.000000e+00
6.500000e-01 4.500000e-01 0.000000e+00
6.500000e-01 5.000000e-01 0.000000e+00
7.000000e-01 0.000000e+00 0.000000e+00
7.000000e-01 5.000000e-02 0.000000e+00
7.000000e-01 1.000000e-01 0.000000e+00
7.000000e-01 1.500000e-01 0.000000e+00
7.000000e-01 2.000000e-01 0.000000e+00
7.000000e-01 2.500000e-01 0.000000e+00
7.000000e-01 3.000000e-01 0.000000e+00
7.000000e-01 3.500000e-01 0.000000e+00
7.000000e-01 4.000000e-01 0.000000e+00
7.000000e-01 4.500000e-01 0.000000e+00
7.000000e-01 5.000000e-01 0.000000e+00
7.500000e-01 0.000000e+00 0.000000e+00
7.500000e-01 5.000000e-02 0.000000e+00
7.500000e-01 1.000000e-01 0.000000e+00
7.500000e-01 1.500000e-01 0.000000e+00
7.500000e-01 2.000000e-01 0.000000e+00
7.500000e-01 2.500000e-01 0.000000e+00
7.500000e-01 3.000000e-01 0.000000e+00
7.500000e-01 3.500000e-01 0.000000e+00
7.500000e-01 4.000000e-01 0.000000e+00
7.500000e-01 4.500000e-01 0.000000e+00
7.500000e-01 5.000000e-01 0.000000e+00
8.000000e-01 0.000000e+00 0.000000e+00
8.000000e-01 5.000000e-02 0.000000e+00
8.000000e-01 1.000000e-01 0.000000e+00
8.000000e-01 1.500000e-01 0.000000e+00
8.000000e-01 2.000000e-01 0.000000e+00
8.000000e-01 2.500000e-01 0.000000e+00
8.000000e-01 3.000000e-01 0.000000e+00
8.000000e-01 3.500000e-01 0.000000e+00
8.000000e-01 4.000000e-01 0.000000e+00
8.000000e-01 4.500000e-01 0.000000e+00
8.000000e-01 5.000000e-01 0.000000e+00
8.500000e-01 0.000000e+00 0.000000e+00
8.500000e-01 5.000000e-02 0.000000e+00
8.500000e-01 1.000000e-01 0.000000e+00
8.500000e-01 1.500000e-01 0.000000e+00
8.500000e-01 2.000000e-01 0.000000e+00
8.500000e-01 2.500000e-01 0.000000e+00
8.500000e-01 3.000000e-01 0.000000e+00
8.500000e-01 3.500000e-01 0.000000e+00
8.500000e-01 4.000000e-01 0.000000e+00
8.500000e-01 4.500000e-01 0.000000e+00
8.500000e-01 5.000000e-01 0.000000e+00
9.000000e-01 0.000000e+00 0.000000e+00
9.000000e-01 5.000000e-02 0.000000e+00
9.000000e-01 1.000000e-01 0.000000e+00
9.000000e-01 1.500000e-01 0.000000e+00
9.000000e-01 2.000000e-01 0.000000e+00
9.000000e-01 2.500000e-01 0.000000e+00
9.000000e-01 3.000000e-01 0.000000e+00
9.000000e-01 3.500000e-01 0.000000e+00
9.000000e-01 4.000000e-01 0.000000e+00
9.000000e-01 4.500000e-01 0.000000e+00
9.000000e-01 5.000000e-01 0.000000e+00
9.500000e-01 0.000000e+00 0.000000e+00
9.500000e-01 5.000000e-02 0.000000e+00
9.500000e-01 1.000000e-01 0.000000e+00
9.500000e-01 1.500000e-01 0.000000e+00
9.500000e-01 2.000000e-01 0.000000e+00
9.500000e-01 2.500000e-01 0.000000e+00
9.500000e-01 3.000000e-01 0.000000e+00
9.500000e-01 3.500000e-01 0.000000e+00
9.500000e-01 4.000000e-01 0.000000e+00
9.500000e-01 4.500000e-01 0.000000e+00
9.500000e-01 5.000000e-01 0.000000e+00
1.000000e+00 0.000000e+00 0.000000e+00
1.000000e+00 5.000000e-02 0.000000e+00
1.000000e+00 1.000000e-01 0.000000e+00
1.000000e+00 1.500000e-01 0.000000e+00
1.000000e+00 2.000000e-01 0.000000e+00
1.000000e+00 2.500000e-01 0.000000e+00
1.000000e+00 3.000000e-01 0.000000e+00
1.000000e+00 3.500000e-01 0.000000e+00
1.000000e+00 4.000000e-01 0.000000e+00
1.000000e+00 4.500000e-01 0.000000e+00
1.000000e+00 5.000000e-01 0.000000e+00
1.050000e+00 0.000000e+00 0.000000e+00
1.050000e+00 5.000000e-02 0.000000e+00
1.050000e+00 1.000000e-01 0.000000e+00
1.050000e+00 1.500000e-01 0.000000e+00
1.050000e+00 2.000000e-01 0.000000e+00
1.050000e+00 2.500000e-01 0.000000e+00
1.050000e+00 3.000000e-01 0.000000e+00
1.050000e+00 3.500000e-01 0.000000e+00
1.050000e+00 4.000000e-01 0.000000e+00
1.050000e+00 4.500000e-01 0.000000e+00
1.050000e+00 5.000000e-01 0.000000e+00
1.100000e+00 0.000000e+00 0.000000e+00
1.100000e+00 5.000000e-02 0.000000e+00
1.100000e+00 1.000000e-01 0.000000e+00
1.100000e+00 1.500000e-01 0.000000e+00
1.100000e+00 2.000000e-01 0.000000e+00
1.100000e+00 2.500000e-01 0.000000e+00
1.100000e+00 3.000000e-01 0.000000e+00
1.100000e+00 3.500000e-01 0.000000e+00
1.100000e+00 4.000000e-01 0.000000e+00
1.100000e+00 4.500000e-01 0.000000e+00
1.100000e+00 5.000000e-01 0.000000e+00
[...]
POINT_DATA     451
VECTORS DISPLACEMENT_2.000000e-02 double
0.000000e+00    0.000000e+00    0.000000e+00
0.000000e+00    0.000000e+00    0.000000e+00
0.000000e+00    0.000000e+00    0.000000e+00
0.000000e+00    0.000000e+00    0.000000e+00
0.000000e+00    0.000000e+00    0.000000e+00
0.000000e+00    0.000000e+00    0.000000e+00
0.000000e+00    0.000000e+00    0.000000e+00
0.000000e+00    0.000000e+00    0.000000e+00
0.000000e+00    0.000000e+00    0.000000e+00
0.000000e+00    0.000000e+00    0.000000e+00
0.000000e+00    0.000000e+00    0.000000e+00
-2.179535e-07    -1.583903e-07    0.000000e+00
-1.381392e-07    -7.940008e-08    0.000000e+00
-9.857588e-08    -4.108190e-08    0.000000e+00
-6.364921e-08    -2.027358e-08    0.000000e+00
-3.138167e-08    -9.502504e-09    0.000000e+00
-6.514103e-21    -6.153247e-09    0.000000e+00
3.138167e-08    -9.502504e-09    0.000000e+00
6.364921e-08    -2.027358e-08    0.000000e+00
9.857588e-08    -4.108190e-08    0.000000e+00
1.381392e-07    -7.940008e-08    0.000000e+00
2.179535e-07    -1.583903e-07    0.000000e+00
-4.112746e-07    -2.633777e-07    0.000000e+00
-3.006826e-07    -1.905057e-07    0.000000e+00
-2.110757e-07    -1.337335e-07    0.000000e+00
-1.361626e-07    -9.860880e-08    0.000000e+00
-6.687831e-08    -7.946711e-08    0.000000e+00
-1.378062e-20    -7.338659e-08    0.000000e+00
6.687831e-08    -7.946711e-08    0.000000e+00
1.361626e-07    -9.860880e-08    0.000000e+00
2.110757e-07    -1.337335e-07    0.000000e+00
3.006826e-07    -1.905057e-07    0.000000e+00
4.112746e-07    -2.633777e-07    0.000000e+00
-5.981667e-07    -3.939512e-07    0.000000e+00
-4.572562e-07    -3.209098e-07    0.000000e+00
-3.290503e-07    -2.633151e-07    0.000000e+00
-2.130354e-07    -2.226864e-07    0.000000e+00
-1.048274e-07    -1.992667e-07    0.000000e+00
-2.173003e-20    -1.916375e-07    0.000000e+00
1.048274e-07    -1.992667e-07    0.000000e+00
2.130354e-07    -2.226864e-07    0.000000e+00
3.290503e-07    -2.633151e-07    0.000000e+00
4.572562e-07    -3.209098e-07    0.000000e+00
5.981667e-07    -3.939512e-07    0.000000e+00
-7.830189e-07    -5.551316e-07    0.000000e+00
-6.086891e-07    -4.837469e-07    0.000000e+00
-4.444857e-07    -4.271065e-07    0.000000e+00
-2.902492e-07    -3.862302e-07    0.000000e+00
-1.432868e-07    -3.616934e-07    0.000000e+00
-3.002169e-20    -3.535571e-07    0.000000e+00
1.432868e-07    -3.616934e-07    0.000000e+00
2.902492e-07    -3.862302e-07    0.000000e+00
4.444857e-07    -4.271065e-07    0.000000e+00
6.086891e-07    -4.837469e-07    0.000000e+00
7.830189e-07    -5.551316e-07    0.000000e+00
-9.647687e-07    -7.512651e-07    0.000000e+00
-7.557291e-07    -6.815363e-07    0.000000e+00
-5.562618e-07    -6.265991e-07    0.000000e+00
-3.654245e-07    -5.867943e-07    0.000000e+00
-1.810212e-07    -5.626969e-07    0.000000e+00
-3.861445e-20    -5.546307e-07    0.000000e+00
1.810212e-07    -5.626969e-07    0.000000e+00
3.654245e-07    -5.867943e-07    0.000000e+00
5.562618e-07    -6.265991e-07    0.000000e+00
7.557291e-07    -6.815363e-07    0.000000e+00
9.647687e-07    -7.512651e-07    0.000000e+00
-1.142584e-06    -9.828652e-07    0.000000e+00
-8.986704e-07    -9.149708e-07    0.000000e+00
-6.643706e-07    -8.617631e-07    0.000000e+00
-4.380489e-07    -8.233618e-07    0.000000e+00
-2.175066e-07    -8.001188e-07    0.000000e+00
-4.731142e-20    -7.923354e-07    0.000000e+00
2.175066e-07    -8.001188e-07    0.000000e+00
4.380489e-07    -8.233618e-07    0.000000e+00
6.643706e-07    -8.617631e-07    0.000000e+00
8.986704e-07    -9.149708e-07    0.000000e+00
1.142584e-06    -9.828652e-07    0.000000e+00
-1.315871e-06    -1.249544e-06    0.000000e+00
-1.037564e-06    -1.183560e-06    0.000000e+00
-7.690181e-07    -1.132037e-06    0.000000e+00
-5.081597e-07    -1.095003e-06    0.000000e+00
-2.526869e-07    -1.072652e-06    0.000000e+00
-5.563948e-20    -1.065176e-06    0.000000e+00
2.526869e-07    -1.072652e-06    0.000000e+00
5.081597e-07    -1.095003e-06    0.000000e+00
7.690181e-07    -1.132037e-06    0.000000e+00
1.037564e-06    -1.183560e-06    0.000000e+00
1.315871e-06    -1.249544e-06    0.000000e+00
-1.484299e-06    -1.550461e-06    0.000000e+00
-1.172394e-06    -1.486433e-06    0.000000e+00
-8.703682e-07    -1.436540e-06    0.000000e+00
-5.759135e-07    -1.400783e-06    0.000000e+00
-2.866369e-07    -1.379255e-06    0.000000e+00
-6.376570e-20    -1.372065e-06    0.000000e+00
2.866369e-07    -1.379255e-06    0.000000e+00
5.759135e-07    -1.400783e-06    0.000000e+00
8.703682e-07    -1.436540e-06    0.000000e+00
1.172394e-06    -1.486433e-06    0.000000e+00
1.484299e-06    -1.550461e-06    0.000000e+00
-1.647698e-06    -1.884632e-06    0.000000e+00
-1.303133e-06    -1.822580e-06    0.000000e+00
-9.685218e-07    -1.774279e-06    0.000000e+00
-6.414401e-07    -1.739722e-06    0.000000e+00
-3.194378e-07    -1.718952e-06    0.000000e+00
-7.197133e-20    -1.712021e-06    0.000000e+00
3.194378e-07    -1.718952e-06    0.000000e+00
6.414401e-07    -1.739722e-06    0.000000e+00
9.685218e-07    -1.774279e-06    0.000000e+00
1.303133e-06    -1.822580e-06    0.000000e+00
1.647698e-06    -1.884632e-06    0.000000e+00
-1.805989e-06    -2.251020e-06    0.000000e+00
-1.429763e-06    -2.190954e-06    0.000000e+00
-1.063533e-06    -2.144223e-06    0.000000e+00
-7.048210e-07    -2.110819e-06    0.000000e+00
-3.511458e-07    -2.090761e-06    0.000000e+00
-8.037549e-20    -2.084071e-06    0.000000e+00
3.511458e-07    -2.090761e-06    0.000000e+00
7.048210e-07    -2.110819e-06    0.000000e+00
1.063533e-06    -2.144223e-06    0.000000e+00
1.429763e-06    -2.190954e-06    0.000000e+00
1.805989e-06    -2.251020e-06    0.000000e+00
-1.959137e-06    -2.648582e-06    0.000000e+00
-1.552275e-06    -2.590505e-06    0.000000e+00
-1.155429e-06    -2.545331e-06    0.000000e+00
-7.661003e-07    -2.513056e-06    0.000000e+00
-3.817927e-07    -2.493684e-06    0.000000e+00
-8.760174e-20    -2.487225e-06    0.000000e+00
3.817927e-07    -2.493684e-06    0.000000e+00
7.661003e-07    -2.513056e-06    0.000000e+00
1.155429e-06    -2.545331e-06    0.000000e+00
1.552275e-06    -2.590505e-06    0.000000e+00
1.959137e-06    -2.648582e-06    0.000000e+00
-2.107128e-06    -3.076274e-06    0.000000e+00
-1.670661e-06    -3.020188e-06    0.000000e+00
-1.244220e-06    -2.976567e-06    0.000000e+00
-8.252995e-07    -2.945406e-06    0.000000e+00
-4.113949e-07    -2.926708e-06    0.000000e+00
-9.501327e-20    -2.920475e-06    0.000000e+00
4.113949e-07    -2.926708e-06    0.000000e+00
8.252995e-07    -2.945406e-06    0.000000e+00
1.244220e-06    -2.976567e-06    0.000000e+00
1.670661e-06    -3.020188e-06    0.000000e+00
2.107128e-06    -3.076274e-06    0.000000e+00
-2.249958e-06    -3.533057e-06    0.000000e+00
-1.784919e-06    -3.478963e-06    0.000000e+00
-1.329912e-06    -3.436892e-06    0.000000e+00
-8.824280e-07    -3.406842e-06    0.000000e+00
-4.399598e-07    -3.388811e-06    0.000000e+00
-1.034836e-19    -3.382801e-06    0.000000e+00
4.399598e-07    -3.388811e-06    0.000000e+00
8.824280e-07    -3.406842e-06    0.000000e+00
1.329912e-06    -3.436892e-06    0.000000e+00
1.784919e-06    -3.478963e-06    0.000000e+00
2.249958e-06    -3.533057e-06    0.000000e+00
-2.387623e-06    -4.017897e-06    0.000000e+00
-1.895047e-06    -3.965795e-06    0.000000e+00
-1.412505e-06    -3.925273e-06    0.000000e+00
-9.374895e-07    -3.896330e-06    0.000000e+00
-4.674905e-07    -3.878965e-06    0.000000e+00
-1.088305e-19    -3.873177e-06    0.000000e+00
4.674905e-07    -3.878965e-06    0.000000e+00
9.374895e-07    -3.896330e-06    0.000000e+00
1.412505e-06    -3.925273e-06    0.000000e+00
1.895047e-06    -3.965795e-06    0.000000e+00
2.387623e-06    -4.017897e-06    0.000000e+00
-2.520124e-06    -4.529758e-06    0.000000e+00
-2.001043e-06    -4.479649e-06    0.000000e+00
-1.492000e-06    -4.440677e-06    0.000000e+00
-9.904848e-07    -4.412841e-06    0.000000e+00
-4.939878e-07    -4.396140e-06    0.000000e+00
-1.137274e-19    -4.390573e-06    0.000000e+00
4.939878e-07    -4.396140e-06    0.000000e+00
9.904848e-07    -4.412841e-06    0.000000e+00
1.492000e-06    -4.440677e-06    0.000000e+00
2.001043e-06    -4.479649e-06    0.000000e+00
2.520124e-06    -4.529758e-06    0.000000e+00
-2.647460e-06    -5.067609e-06    0.000000e+00
-2.102908e-06    -5.019492e-06    0.000000e+00
-1.568396e-06    -4.982070e-06    0.000000e+00
-1.041414e-06    -4.955341e-06    0.000000e+00
-5.194520e-07    -4.939305e-06    0.000000e+00
-1.175788e-19    -4.933959e-06    0.000000e+00
5.194520e-07    -4.939305e-06    0.000000e+00
1.041414e-06    -4.955341e-06    0.000000e+00
1.568396e-06    -4.982070e-06    0.000000e+00
2.102908e-06    -5.019492e-06    0.000000e+00
2.647460e-06    -5.067609e-06    0.000000e+00
-2.769629e-06    -5.630416e-06    0.000000e+00
-2.200639e-06    -5.584291e-06    0.000000e+00
-1.641692e-06    -5.548420e-06    0.000000e+00
-1.090276e-06    -5.522799e-06    0.000000e+00
-5.438828e-07    -5.507427e-06    0.000000e+00
-1.185581e-19    -5.502303e-06    0.000000e+00
5.438828e-07    -5.507427e-06    0.000000e+00
1.090276e-06    -5.522799e-06    0.000000e+00
1.641692e-06    -5.548420e-06    0.000000e+00
2.200639e-06    -5.584291e-06    0.000000e+00
2.769629e-06    -5.630416e-06    0.000000e+00
-2.886631e-06    -6.217146e-06    0.000000e+00
-2.294236e-06    -6.173015e-06    0.000000e+00
-1.711886e-06    -6.138694e-06    0.000000e+00
-1.137072e-06    -6.114181e-06    0.000000e+00
-5.672800e-07    -6.099473e-06    0.000000e+00
-1.211257e-19    -6.094571e-06    0.000000e+00
5.672800e-07    -6.099473e-06    0.000000e+00
1.137072e-06    -6.114181e-06    0.000000e+00
1.711886e-06    -6.138694e-06    0.000000e+00
2.294236e-06    -6.173015e-06    0.000000e+00
2.886631e-06    -6.217146e-06    0.000000e+00
-2.998464e-06    -6.826766e-06    0.000000e+00
-2.383697e-06    -6.784629e-06    0.000000e+00
-1.778980e-06    -6.751860e-06    0.000000e+00
-1.181799e-06    -6.728454e-06    0.000000e+00
-5.896432e-07    -6.714412e-06    0.000000e+00
-1.253609e-19    -6.709731e-06    0.000000e+00
5.896432e-07    -6.714412e-06    0.000000e+00
1.181799e-06    -6.728454e-06    0.000000e+00
1.778980e-06    -6.751860e-06    0.000000e+00
2.383697e-06    -6.784629e-06    0.000000e+00
2.998464e-06    -6.826766e-06    0.000000e+00
-3.105126e-06    -7.458243e-06    0.000000e+00
-2.469022e-06    -7.418101e-06    0.000000e+00
-1.842970e-06    -7.386883e-06    0.000000e+00
-1.224458e-06    -7.364586e-06    0.000000e+00
-6.109720e-07    -7.351209e-06    0.000000e+00
-1.338047e-19    -7.346750e-06    0.000000e+00
6.109720e-07    -7.351209e-06    0.000000e+00
1.224458e-06    -7.364586e-06    0.000000e+00
1.842970e-06    -7.386883e-06    0.000000e+00
2.469022e-06    -7.418101e-06    0.000000e+00
3.105126e-06    -7.458243e-06    0.000000e+00
-3.206617e-06    -8.110543e-06    0.000000e+00
-2.550208e-06    -8.072397e-06    0.000000e+00
-1.903856e-06    -8.042731e-06    0.000000e+00
-1.265047e-06    -8.021544e-06    0.000000e+00
-6.312661e-07    -8.008832e-06    0.000000e+00
-1.452397e-19    -8.004595e-06    0.000000e+00
6.312661e-07    -8.008832e-06    0.000000e+00
1.265047e-06    -8.021544e-06    0.000000e+00
1.903856e-06    -8.042731e-06    0.000000e+00
2.550208e-06    -8.072397e-06    0.000000e+00
3.206617e-06    -8.110543e-06    0.000000e+00
-3.302933e-06    -8.782632e-06    0.000000e+00
-2.627254e-06    -8.746483e-06    0.000000e+00
-1.961637e-06    -8.718370e-06    0.000000e+00
-1.303566e-06    -8.698292e-06    0.000000e+00
-6.505250e-07    -8.686246e-06    0.000000e+00
-1.537100e-19    -8.682231e-06    0.000000e+00
6.505250e-07    -8.686246e-06    0.000000e+00
1.303566e-06    -8.698292e-06    0.000000e+00
1.961637e-06    -8.718370e-06    0.000000e+00
2.627254e-06    -8.746483e-06    0.000000e+00
3.302933e-06    -8.782632e-06    0.000000e+00
-3.394072e-06    -9.473476e-06    0.000000e+00
-2.700159e-06    -9.439324e-06    0.000000e+00
-2.016311e-06    -9.412765e-06    0.000000e+00
-1.340013e-06    -9.393797e-06    0.000000e+00
-6.687483e-07    -9.382417e-06    0.000000e+00
-1.610421e-19    -9.378624e-06    0.000000e+00
6.687483e-07    -9.382417e-06    0.000000e+00
1.340013e-06    -9.393797e-06    0.000000e+00
2.016311e-06    -9.412765e-06    0.000000e+00
2.700159e-06    -9.439324e-06    0.000000e+00
3.394072e-06    -9.473476e-06    0.000000e+00
-3.480032e-06    -1.018204e-05    0.000000e+00
-2.768920e-06    -1.014989e-05    0.000000e+00
-2.067878e-06    -1.012488e-05    0.000000e+00
-1.374389e-06    -1.010702e-05    0.000000e+00
-6.859356e-07    -1.009631e-05    0.000000e+00
-1.696713e-19    -1.009274e-05    0.000000e+00
6.859356e-07    -1.009631e-05    0.000000e+00
1.374389e-06    -1.010702e-05    0.000000e+00
2.067878e-06    -1.012488e-05    0.000000e+00
2.768920e-06    -1.014989e-05    0.000000e+00
3.480032e-06    -1.018204e-05    0.000000e+00
-3.560812e-06    -1.090729e-05    0.000000e+00
-2.833536e-06    -1.087713e-05    0.000000e+00
-2.116335e-06    -1.085369e-05    0.000000e+00
-1.406692e-06    -1.083694e-05    0.000000e+00
-7.020863e-07    -1.082689e-05    0.000000e+00
-1.725300e-19    -1.082354e-05    0.000000e+00
7.020863e-07    -1.082689e-05    0.000000e+00
1.406692e-06    -1.083694e-05    0.000000e+00
2.116335e-06    -1.085369e-05    0.000000e+00
2.833536e-06    -1.087713e-05    0.000000e+00
3.560812e-06    -1.090729e-05    0.000000e+00
-3.636407e-06    -1.164819e-05    0.000000e+00
-2.894003e-06    -1.162003e-05    0.000000e+00
-2.161681e-06    -1.159814e-05    0.000000e+00
-1.436920e-06    -1.158250e-05    0.000000e+00
-7.172001e-07    -1.157312e-05    0.000000e+00
-1.754946e-19    -1.157000e-05    0.000000e+00
7.172001e-07    -1.157312e-05    0.000000e+00
1.436920e-06    -1.158250e-05    0.000000e+00
2.161681e-06    -1.159814e-05    0.000000e+00
2.894003e-06    -1.162003e-05    0.000000e+00
3.636407e-06    -1.164819e-05    0.000000e+00
-3.706815e-06    -1.240370e-05    0.000000e+00
-2.950321e-06    -1.237754e-05    0.000000e+00
-2.203915e-06    -1.235721e-05    0.000000e+00
-1.465074e-06    -1.234268e-05    0.000000e+00
-7.312761e-07    -1.233397e-05    0.000000e+00
-1.778769e-19    -1.233107e-05    0.000000e+00
7.312761e-07    -1.233397e-05    0.000000e+00
1.465074e-06    -1.234268e-05    0.000000e+00
2.203915e-06    -1.235721e-05    0.000000e+00
2.950321e-06    -1.237754e-05    0.000000e+00
3.706815e-06    -1.240370e-05    0.000000e+00
-3.772032e-06    -1.317278e-05    0.000000e+00
-3.002487e-06    -1.314863e-05    0.000000e+00
-2.243034e-06    -1.312985e-05    0.000000e+00
-1.491151e-06    -1.311644e-05    0.000000e+00
-7.443138e-07    -1.310840e-05    0.000000e+00
-1.756535e-19    -1.310572e-05    0.000000e+00
7.443138e-07    -1.310840e-05    0.000000e+00
1.491151e-06    -1.311644e-05    0.000000e+00
2.243034e-06    -1.312985e-05    0.000000e+00
3.002487e-06    -1.314863e-05    0.000000e+00
3.772032e-06    -1.317278e-05    0.000000e+00
-3.832056e-06    -1.395440e-05    0.000000e+00
-3.050498e-06    -1.393226e-05    0.000000e+00
-2.279037e-06    -1.391504e-05    0.000000e+00
-1.515150e-06    -1.390274e-05    0.000000e+00
-7.563118e-07    -1.389537e-05    0.000000e+00
-1.752299e-19    -1.389291e-05    0.000000e+00
7.563118e-07    -1.389537e-05    0.000000e+00
1.515150e-06    -1.390274e-05    0.000000e+00
2.279037e-06    -1.391504e-05    0.000000e+00
3.050498e-06    -1.393226e-05    0.000000e+00
3.832056e-06    -1.395440e-05    0.000000e+00
-3.886883e-06    -1.474752e-05    0.000000e+00
-3.094352e-06    -1.472738e-05    0.000000e+00
-2.311920e-06    -1.471172e-05    0.000000e+00
-1.537066e-06    -1.470055e-05    0.000000e+00
-7.672677e-07    -1.469385e-05    0.000000e+00
-1.820591e-19    -1.469161e-05    0.000000e+00
7.672677e-07    -1.469385e-05    0.000000e+00
1.537066e-06    -1.470055e-05    0.000000e+00
2.311920e-06    -1.471172e-05    0.000000e+00
3.094352e-06    -1.472738e-05    0.000000e+00
3.886883e-06    -1.474752e-05    0.000000e+00
-3.936511e-06    -1.555109e-05    0.000000e+00
-3.134048e-06    -1.553295e-05    0.000000e+00
-2.341679e-06    -1.551886e-05    0.000000e+00
-1.556893e-06    -1.550882e-05    0.000000e+00
-7.771761e-07    -1.550280e-05    0.000000e+00
-1.878825e-19    -1.550079e-05    0.000000e+00
7.771761e-07    -1.550280e-05    0.000000e+00
1.556893e-06    -1.550882e-05    0.000000e+00
2.341679e-06    -1.551886e-05    0.000000e+00
3.134048e-06    -1.553295e-05    0.000000e+00
3.936511e-06    -1.555109e-05    0.000000e+00
-3.980945e-06    -1.636406e-05    0.000000e+00
-3.169586e-06    -1.634793e-05    0.000000e+00
-2.368305e-06    -1.633542e-05    0.000000e+00
-1.574617e-06    -1.632651e-05    0.000000e+00
-7.860265e-07    -1.632120e-05    0.000000e+00
-2.014350e-19    -1.631943e-05    0.000000e+00
7.860265e-07    -1.632120e-05    0.000000e+00
1.574617e-06    -1.632651e-05    0.000000e+00
2.368305e-06    -1.633542e-05    0.000000e+00
3.169586e-06    -1.634793e-05    0.000000e+00
3.980945e-06    -1.636406e-05    0.000000e+00
-4.020200e-06    -1.718539e-05    0.000000e+00
-3.200970e-06    -1.717126e-05    0.000000e+00
-2.391778e-06    -1.716034e-05    0.000000e+00
-1.590207e-06    -1.715261e-05    0.000000e+00
-7.937979e-07    -1.714802e-05    0.000000e+00
-2.130817e-19    -1.714650e-05    0.000000e+00
7.937979e-07    -1.714802e-05    0.000000e+00
1.590207e-06    -1.715261e-05    0.000000e+00
2.391778e-06    -1.716034e-05    0.000000e+00
3.200970e-06    -1.717126e-05    0.000000e+00
4.020200e-06    -1.718539e-05    0.000000e+00
-4.054319e-06    -1.801402e-05    0.000000e+00
-3.228208e-06    -1.800189e-05    0.000000e+00
-2.412062e-06    -1.799258e-05    0.000000e+00
-1.603611e-06    -1.798608e-05    0.000000e+00
-8.004526e-07    -1.798227e-05    0.000000e+00
-2.189580e-19    -1.798102e-05    0.000000e+00
8.004526e-07    -1.798227e-05    0.000000e+00
1.603611e-06    -1.798608e-05    0.000000e+00
2.412062e-06    -1.799258e-05    0.000000e+00
3.228208e-06    -1.800189e-05    0.000000e+00
4.054319e-06    -1.801402e-05    0.000000e+00
-4.083402e-06    -1.884894e-05    0.000000e+00
-3.251314e-06    -1.883877e-05    0.000000e+00
-2.429090e-06    -1.883112e-05    0.000000e+00
-1.614738e-06    -1.882592e-05    0.000000e+00
-8.059324e-07    -1.882294e-05    0.000000e+00
-2.255225e-19    -1.882198e-05    0.000000e+00
8.059324e-07    -1.882294e-05    0.000000e+00
1.614738e-06    -1.882592e-05    0.000000e+00
2.429090e-06    -1.883112e-05    0.000000e+00
3.251314e-06    -1.883877e-05    0.000000e+00
4.083402e-06    -1.884894e-05    0.000000e+00
-4.107656e-06    -1.968919e-05    0.000000e+00
-3.270302e-06    -1.968094e-05    0.000000e+00
-2.442749e-06    -1.967499e-05    0.000000e+00
-1.623465e-06    -1.967115e-05    0.000000e+00
-8.101689e-07    -1.966902e-05    0.000000e+00
-2.342046e-19    -1.966834e-05    0.000000e+00
8.101689e-07    -1.966902e-05    0.000000e+00
1.623465e-06    -1.967115e-05    0.000000e+00
2.442749e-06    -1.967499e-05    0.000000e+00
3.270302e-06    -1.968094e-05    0.000000e+00
4.107656e-06    -1.968919e-05    0.000000e+00
-4.127456e-06    -2.053409e-05    0.000000e+00
-3.285154e-06    -2.052766e-05    0.000000e+00
-2.452890e-06    -2.052339e-05    0.000000e+00
-1.629703e-06    -2.052078e-05    0.000000e+00
-8.131410e-07    -2.051934e-05    0.000000e+00
-2.237226e-19    -2.051887e-05    0.000000e+00
8.131410e-07    -2.051934e-05    0.000000e+00
1.629703e-06    -2.052078e-05    0.000000e+00
2.452890e-06    -2.052339e-05    0.000000e+00
3.285154e-06    -2.052766e-05    0.000000e+00
4.127456e-06    -2.053409e-05    0.000000e+00
-4.143396e-06    -2.138362e-05    0.000000e+00
-3.295757e-06    -2.137879e-05    0.000000e+00
-2.459467e-06    -2.137587e-05    0.000000e+00
-1.633626e-06    -2.137376e-05    0.000000e+00
-8.150086e-07    -2.137231e-05    0.000000e+00
-2.082642e-19    -2.137179e-05    0.000000e+00
8.150086e-07    -2.137231e-05    0.000000e+00
1.633626e-06    -2.137376e-05    0.000000e+00
2.459467e-06    -2.137587e-05    0.000000e+00
3.295757e-06    -2.137879e-05    0.000000e+00