TITLE = "1D Tensile with 5 elemets"
VARIABLES =    "X"   "Y"   "Z" "DIS"

ZONE T="Time =       0.0000" F=FEPOINT N=    6 E=    5 ET=LINESEG C=CYAN
