# vtk DataFile Version 3.0
"1D Tensile with 5 elemets"
ASCII
DATASET UNSTRUCTURED_GRID

POINTS       6 double
0.000000e+00 0.000000e+00 0.000000e+00
1.000000e+01 0.000000e+00 0.000000e+00
2.000000e+01 0.000000e+00 0.000000e+00
3.000000e+01 0.000000e+00 0.000000e+00
4.000000e+01 0.000000e+00 0.000000e+00
5.000000e+01 0.000000e+00 0.000000e+00
CELLS       5      15
2       0       1
2       1       2
2       2       3
2       3       4
2       4       5
CELL_TYPES       5
3
3
3
3
3
POINT_DATA       6
VECTORS DISPLACEMENT_2.000000e-01 double
0.000000e+00    0.000000e+00    0.000000e+00
5.152695e-07    0.000000e+00    0.000000e+00
5.807728e-06    0.000000e+00    0.000000e+00
6.208722e-05    0.000000e+00    0.000000e+00
5.091283e-04    0.000000e+00    0.000000e+00
2.884436e-03    0.000000e+00    0.000000e+00

CELL_DATA        5
TENSORS Element_Stress2.000000e-01 double
CELL_DATA        5
SCALARS Stress2.000000e-01 double 1
LOOKUP_TABLE Element_Stress2.000000e-01
1.030534e-02
1.058436e-01
1.124957e+00
8.901030e+00
4.640392e+01

SCALARS Force2.000000e-01 double 1
LOOKUP_TABLE Element_Force2.000000e-01
1.030534e-02
1.058436e-01
1.124957e+00
8.901030e+00
4.640392e+01

POINT_DATA       6
VECTORS DISPLACEMENT_4.000000e-01 double
0.000000e+00    0.000000e+00    0.000000e+00
3.170454e-05    0.000000e+00    0.000000e+00
1.726838e-04    0.000000e+00    0.000000e+00
8.362734e-04    0.000000e+00    0.000000e+00
3.051890e-03    0.000000e+00    0.000000e+00
7.733707e-03    0.000000e+00    0.000000e+00

CELL_DATA        5
TENSORS Element_Stress4.000000e-01 double
CELL_DATA        5
SCALARS Stress4.000000e-01 double 1
LOOKUP_TABLE Element_Stress4.000000e-01
6.338897e-01
2.815616e+00
1.318430e+01
4.335182e+01
8.944853e+01

SCALARS Force4.000000e-01 double 1
LOOKUP_TABLE Element_Force4.000000e-01
6.338897e-01
2.815616e+00
1.318430e+01
4.335182e+01
8.944853e+01

POINT_DATA       6
VECTORS DISPLACEMENT_6.000000e-01 double
0.000000e+00    0.000000e+00    0.000000e+00
2.952407e-04    0.000000e+00    0.000000e+00
1.048135e-03    0.000000e+00    0.000000e+00
3.117145e-03    0.000000e+00    0.000000e+00
7.117966e-03    0.000000e+00    0.000000e+00
1.222921e-02    0.000000e+00    0.000000e+00

CELL_DATA        5
TENSORS Element_Stress6.000000e-01 double
CELL_DATA        5
SCALARS Stress6.000000e-01 double 1
LOOKUP_TABLE Element_Stress6.000000e-01
5.887432e+00
1.494537e+01
4.054139e+01
7.693826e+01
9.725399e+01

SCALARS Force6.000000e-01 double 1
LOOKUP_TABLE Element_Force6.000000e-01
5.887432e+00
1.494537e+01
4.054139e+01
7.693826e+01
9.725399e+01

POINT_DATA       6
VECTORS DISPLACEMENT_8.000000e-01 double
0.000000e+00    0.000000e+00    0.000000e+00
1.173737e-03    0.000000e+00    0.000000e+00
3.150205e-03    0.000000e+00    0.000000e+00
6.718481e-03    0.000000e+00    0.000000e+00
1.151778e-02    0.000000e+00    0.000000e+00
1.649349e-02    0.000000e+00    0.000000e+00

CELL_DATA        5
TENSORS Element_Stress8.000000e-01 double
CELL_DATA        5
SCALARS Stress8.000000e-01 double 1
LOOKUP_TABLE Element_Stress8.000000e-01
2.320240e+01
3.876322e+01
6.890673e+01
9.159028e+01
9.479737e+01

SCALARS Force8.000000e-01 double 1
LOOKUP_TABLE Element_Force8.000000e-01
2.320240e+01
3.876322e+01
6.890673e+01
9.159028e+01
9.479737e+01

POINT_DATA       6
VECTORS DISPLACEMENT_1.000000e+00 double
0.000000e+00    0.000000e+00    0.000000e+00
2.826963e-03    0.000000e+00    0.000000e+00
6.346567e-03    0.000000e+00    0.000000e+00
1.088386e-02    0.000000e+00    0.000000e+00
1.582208e-02    0.000000e+00    0.000000e+00
2.076813e-02    0.000000e+00    0.000000e+00

CELL_DATA        5
TENSORS Element_Stress1.000000e+00 double
CELL_DATA        5
SCALARS Stress1.000000e+00 double 1
LOOKUP_TABLE Element_Stress1.000000e+00
5.498487e+01
6.799879e+01
8.680724e+01
9.411663e+01
9.425894e+01

SCALARS Force1.000000e+00 double 1
LOOKUP_TABLE Element_Force1.000000e+00
5.498487e+01
6.799879e+01
8.680724e+01
9.411663e+01
9.425894e+01

POINT_DATA       6
VECTORS DISPLACEMENT_1.200000e+00 double
0.000000e+00    0.000000e+00    0.000000e+00
4.897387e-03    0.000000e+00    0.000000e+00
9.935545e-03    0.000000e+00    0.000000e+00
1.504112e-02    0.000000e+00    0.000000e+00
2.003687e-02    0.000000e+00    0.000000e+00
2.502339e-02    0.000000e+00    0.000000e+00

CELL_DATA        5
TENSORS Element_Stress1.200000e+00 double
CELL_DATA        5
SCALARS Stress1.200000e+00 double 1
LOOKUP_TABLE Element_Stress1.200000e+00
9.337482e+01
9.593005e+01
9.715130e+01
9.516110e+01
9.499343e+01

SCALARS Force1.200000e+00 double 1
LOOKUP_TABLE Element_Force1.200000e+00
9.337482e+01
9.593005e+01
9.715130e+01
9.516110e+01
9.499343e+01

POINT_DATA       6
VECTORS DISPLACEMENT_1.400000e+00 double
0.000000e+00    0.000000e+00    0.000000e+00
6.783331e-03    0.000000e+00    0.000000e+00
1.316993e-02    0.000000e+00    0.000000e+00
1.887478e-02    0.000000e+00    0.000000e+00
2.411459e-02    0.000000e+00    0.000000e+00
2.917065e-02    0.000000e+00    0.000000e+00

CELL_DATA        5
TENSORS Element_Stress1.400000e+00 double
CELL_DATA        5
SCALARS Stress1.400000e+00 double 1
LOOKUP_TABLE Element_Stress1.400000e+00
1.270485e+02
1.200639e+02
1.079392e+02
9.957848e+01
9.625454e+01

SCALARS Force1.400000e+00 double 1
LOOKUP_TABLE Element_Force1.400000e+00
1.270485e+02
1.200639e+02
1.079392e+02
9.957848e+01
9.625454e+01

POINT_DATA       6
VECTORS DISPLACEMENT_1.600000e+00 double
0.000000e+00    0.000000e+00    0.000000e+00
8.104397e-03    0.000000e+00    0.000000e+00
1.561694e-02    0.000000e+00    0.000000e+00
2.213007e-02    0.000000e+00    0.000000e+00
2.785160e-02    0.000000e+00    0.000000e+00
3.305366e-02    0.000000e+00    0.000000e+00

CELL_DATA        5
TENSORS Element_Stress1.600000e+00 double
CELL_DATA        5
SCALARS Stress1.600000e+00 double 1
LOOKUP_TABLE Element_Stress1.600000e+00
1.499365e+02
1.397519e+02
1.222972e+02
1.082377e+02
9.889663e+01

SCALARS Force1.600000e+00 double 1
LOOKUP_TABLE Element_Force1.600000e+00
1.499365e+02
1.397519e+02
1.222972e+02
1.082377e+02
9.889663e+01

POINT_DATA       6
VECTORS DISPLACEMENT_1.800000e+00 double
0.000000e+00    0.000000e+00    0.000000e+00
8.845570e-03    0.000000e+00    0.000000e+00
1.719761e-02    0.000000e+00    0.000000e+00
2.458537e-02    0.000000e+00    0.000000e+00
3.094614e-02    0.000000e+00    0.000000e+00
3.637675e-02    0.000000e+00    0.000000e+00

CELL_DATA        5
TENSORS Element_Stress1.800000e+00 double
CELL_DATA        5
SCALARS Stress1.800000e+00 double 1
LOOKUP_TABLE Element_Stress1.800000e+00
1.625343e+02
1.541650e+02
1.375902e+02
1.196075e+02
1.030177e+02

SCALARS Force1.800000e+00 double 1
LOOKUP_TABLE Element_Force1.800000e+00
1.625343e+02
1.541650e+02
1.375902e+02
1.196075e+02
1.030177e+02

POINT_DATA       6
VECTORS DISPLACEMENT_2.000000e+00 double
0.000000e+00    0.000000e+00    0.000000e+00
9.181758e-03    0.000000e+00    0.000000e+00
1.804352e-02    0.000000e+00    0.000000e+00
2.612409e-02    0.000000e+00    0.000000e+00
3.308774e-02    0.000000e+00    0.000000e+00
3.875781e-02    0.000000e+00    0.000000e+00

CELL_DATA        5
TENSORS Element_Stress2.000000e+00 double
CELL_DATA        5
SCALARS Stress2.000000e+00 double 1
LOOKUP_TABLE Element_Stress2.000000e+00
1.681922e+02
1.628076e+02
1.495287e+02
1.302060e+02
1.073165e+02

SCALARS Force2.000000e+00 double 1
LOOKUP_TABLE Element_Force2.000000e+00
1.681922e+02
1.628076e+02
1.495287e+02
1.302060e+02
1.073165e+02

POINT_DATA       6
VECTORS DISPLACEMENT_2.200000e+00 double
0.000000e+00    0.000000e+00    0.000000e+00
9.269732e-03    0.000000e+00    0.000000e+00
1.832181e-02    0.000000e+00    0.000000e+00
2.674190e-02    0.000000e+00    0.000000e+00
3.405847e-02    0.000000e+00    0.000000e+00
3.988082e-02    0.000000e+00    0.000000e+00

CELL_DATA        5
TENSORS Element_Stress2.200000e+00 double
CELL_DATA        5
SCALARS Stress2.200000e+00 double 1
LOOKUP_TABLE Element_Stress2.200000e+00
1.696670e+02
1.660138e+02
1.553235e+02
1.363548e+02
1.100401e+02

SCALARS Force2.200000e+00 double 1
LOOKUP_TABLE Element_Force2.200000e+00
1.696670e+02
1.660138e+02
1.553235e+02
1.363548e+02
1.100401e+02

POINT_DATA       6
VECTORS DISPLACEMENT_2.400000e+00 double
0.000000e+00    0.000000e+00    0.000000e+00
9.166759e-03    0.000000e+00    0.000000e+00
1.812435e-02    0.000000e+00    0.000000e+00
2.649009e-02    0.000000e+00    0.000000e+00
3.380323e-02    0.000000e+00    0.000000e+00
3.963365e-02    0.000000e+00    0.000000e+00

CELL_DATA        5
TENSORS Element_Stress2.400000e+00 double
CELL_DATA        5
SCALARS Stress2.400000e+00 double 1
LOOKUP_TABLE Element_Stress2.400000e+00
1.679405e+02
1.644234e+02
1.543982e+02
1.362955e+02
1.101841e+02

SCALARS Force2.400000e+00 double 1
LOOKUP_TABLE Element_Force2.400000e+00
1.679405e+02
1.644234e+02
1.543982e+02
1.362955e+02
1.101841e+02

POINT_DATA       6
VECTORS DISPLACEMENT_2.600000e+00 double
0.000000e+00    0.000000e+00    0.000000e+00
8.852984e-03    0.000000e+00    0.000000e+00
1.745597e-02    0.000000e+00    0.000000e+00
2.543487e-02    0.000000e+00    0.000000e+00
3.243355e-02    0.000000e+00    0.000000e+00
3.814203e-02    0.000000e+00    0.000000e+00

CELL_DATA        5
TENSORS Element_Stress2.600000e+00 double
CELL_DATA        5
SCALARS Stress2.600000e+00 double 1
LOOKUP_TABLE Element_Stress2.600000e+00
1.626595e+02
1.584301e+02
1.477863e+02
1.308181e+02
1.080041e+02

SCALARS Force2.600000e+00 double 1
LOOKUP_TABLE Element_Force2.600000e+00
1.626595e+02
1.584301e+02
1.477863e+02
1.308181e+02
1.080041e+02

POINT_DATA       6
VECTORS DISPLACEMENT_2.800000e+00 double
0.000000e+00    0.000000e+00    0.000000e+00
8.288997e-03    0.000000e+00    0.000000e+00
1.629569e-02    0.000000e+00    0.000000e+00
2.366500e-02    0.000000e+00    0.000000e+00
3.017627e-02    0.000000e+00    0.000000e+00
3.569518e-02    0.000000e+00    0.000000e+00

CELL_DATA        5
TENSORS Element_Stress2.800000e+00 double
CELL_DATA        5
SCALARS Stress2.800000e+00 double 1
LOOKUP_TABLE Element_Stress2.800000e+00
1.530903e+02
1.482630e+02
1.372702e+02
1.222645e+02
1.046052e+02

SCALARS Force2.800000e+00 double 1
LOOKUP_TABLE Element_Force2.800000e+00
1.530903e+02
1.482630e+02
1.372702e+02
1.222645e+02
1.046052e+02

POINT_DATA       6
VECTORS DISPLACEMENT_3.000000e+00 double
0.000000e+00    0.000000e+00    0.000000e+00
7.467700e-03    0.000000e+00    0.000000e+00
1.467178e-02    0.000000e+00    0.000000e+00
2.131903e-02    0.000000e+00    0.000000e+00
2.730638e-02    0.000000e+00    0.000000e+00
3.263100e-02    0.000000e+00    0.000000e+00

CELL_DATA        5
TENSORS Element_Stress3.000000e+00 double
CELL_DATA        5
SCALARS Stress3.000000e+00 double 1
LOOKUP_TABLE Element_Stress3.000000e+00
1.389757e+02
1.343994e+02
1.246585e+02
1.129825e+02
1.011087e+02

SCALARS Force3.000000e+00 double 1
LOOKUP_TABLE Element_Force3.000000e+00
1.389757e+02
1.343994e+02
1.246585e+02
1.129825e+02
1.011087e+02

POINT_DATA       6
VECTORS DISPLACEMENT_3.200000e+00 double
0.000000e+00    0.000000e+00    0.000000e+00
6.441481e-03    0.000000e+00    0.000000e+00
1.270110e-02    0.000000e+00    0.000000e+00
1.859501e-02    0.000000e+00    0.000000e+00
2.409699e-02    0.000000e+00    0.000000e+00
2.925407e-02    0.000000e+00    0.000000e+00

CELL_DATA        5
TENSORS Element_Stress3.200000e+00 double
CELL_DATA        5
SCALARS Stress3.200000e+00 double 1
LOOKUP_TABLE Element_Stress3.200000e+00
1.210333e+02
1.178175e+02
1.113173e+02
1.043009e+02
9.808347e+01

SCALARS Force3.200000e+00 double 1
LOOKUP_TABLE Element_Force3.200000e+00
1.210333e+02
1.178175e+02
1.113173e+02
1.043009e+02
9.808347e+01

POINT_DATA       6
VECTORS DISPLACEMENT_3.400000e+00 double
0.000000e+00    0.000000e+00    0.000000e+00
5.316798e-03    0.000000e+00    0.000000e+00
1.057646e-02    0.000000e+00    0.000000e+00
1.573171e-02    0.000000e+00    0.000000e+00
2.079795e-02    0.000000e+00    0.000000e+00
2.581358e-02    0.000000e+00    0.000000e+00

CELL_DATA        5
TENSORS Element_Stress3.400000e+00 double
CELL_DATA        5
SCALARS Stress3.400000e+00 double 1
LOOKUP_TABLE Element_Stress3.400000e+00
1.009677e+02
9.993696e+01
9.805021e+01
9.643892e+01
9.552170e+01

SCALARS Force3.400000e+00 double 1
LOOKUP_TABLE Element_Force3.400000e+00
1.009677e+02
9.993696e+01
9.805021e+01
9.643892e+01
9.552170e+01

POINT_DATA       6
VECTORS DISPLACEMENT_3.600000e+00 double
0.000000e+00    0.000000e+00    0.000000e+00
4.222730e-03    0.000000e+00    0.000000e+00
8.518158e-03    0.000000e+00    0.000000e+00
1.297411e-02    0.000000e+00    0.000000e+00
1.763576e-02    0.000000e+00    0.000000e+00
2.252170e-02    0.000000e+00    0.000000e+00

CELL_DATA        5
TENSORS Element_Stress3.600000e+00 double
CELL_DATA        5
SCALARS Stress3.600000e+00 double 1
LOOKUP_TABLE Element_Stress3.600000e+00
8.103281e+01
8.237038e+01
8.531732e+01
8.908040e+01
9.316678e+01

SCALARS Force3.600000e+00 double 1
LOOKUP_TABLE Element_Force3.600000e+00
8.103281e+01
8.237038e+01
8.531732e+01
8.908040e+01
9.316678e+01

POINT_DATA       6
VECTORS DISPLACEMENT_3.800000e+00 double
0.000000e+00    0.000000e+00    0.000000e+00
3.273160e-03    0.000000e+00    0.000000e+00
6.720362e-03    0.000000e+00    0.000000e+00
1.054060e-02    0.000000e+00    0.000000e+00
1.481844e-02    0.000000e+00    0.000000e+00
1.957728e-02    0.000000e+00    0.000000e+00

CELL_DATA        5
TENSORS Element_Stress3.800000e+00 double
CELL_DATA        5
SCALARS Stress3.800000e+00 double 1
LOOKUP_TABLE Element_Stress3.800000e+00
6.338840e+01
6.664660e+01
7.359337e+01
8.204683e+01
9.085337e+01

SCALARS Force3.800000e+00 double 1
LOOKUP_TABLE Element_Force3.800000e+00
6.338840e+01
6.664660e+01
7.359337e+01
8.204683e+01
9.085337e+01

POINT_DATA       6
VECTORS DISPLACEMENT_4.000000e+00 double
0.000000e+00    0.000000e+00    0.000000e+00
2.542546e-03    0.000000e+00    0.000000e+00
5.317754e-03    0.000000e+00    0.000000e+00
8.601588e-03    0.000000e+00    0.000000e+00
1.253257e-02    0.000000e+00    0.000000e+00
1.717128e-02    0.000000e+00    0.000000e+00

CELL_DATA        5
TENSORS Element_Stress4.000000e+00 double
CELL_DATA        5
SCALARS Stress4.000000e+00 double 1
LOOKUP_TABLE Element_Stress4.000000e+00
4.959007e+01
5.400539e+01
6.358855e+01
7.564603e+01
8.866151e+01

SCALARS Force4.000000e+00 double 1
LOOKUP_TABLE Element_Force4.000000e+00
4.959007e+01
5.400539e+01
6.358855e+01
7.564603e+01
8.866151e+01

POINT_DATA       6
VECTORS DISPLACEMENT_4.200000e+00 double
0.000000e+00    0.000000e+00    0.000000e+00
2.063076e-03    0.000000e+00    0.000000e+00
4.380205e-03    0.000000e+00    0.000000e+00
7.270683e-03    0.000000e+00    0.000000e+00
1.092947e-02    0.000000e+00    0.000000e+00
1.547016e-02    0.000000e+00    0.000000e+00

CELL_DATA        5
TENSORS Element_Stress4.200000e+00 double
CELL_DATA        5
SCALARS Stress4.200000e+00 double 1
LOOKUP_TABLE Element_Stress4.200000e+00
4.042747e+01
4.529309e+01
5.618552e+01
7.059289e+01
8.686929e+01

SCALARS Force4.200000e+00 double 1
LOOKUP_TABLE Element_Force4.200000e+00
4.042747e+01
4.529309e+01
5.618552e+01
7.059289e+01
8.686929e+01

POINT_DATA       6
VECTORS DISPLACEMENT_4.400000e+00 double
0.000000e+00    0.000000e+00    0.000000e+00
1.837015e-03    0.000000e+00    0.000000e+00
3.927033e-03    0.000000e+00    0.000000e+00
6.605061e-03    0.000000e+00    0.000000e+00
1.010637e-02    0.000000e+00    0.000000e+00
1.458829e-02    0.000000e+00    0.000000e+00

CELL_DATA        5
TENSORS Element_Stress4.400000e+00 double
CELL_DATA        5
SCALARS Stress4.400000e+00 double 1
LOOKUP_TABLE Element_Stress4.400000e+00
3.607756e+01
4.094461e+01
5.216360e+01
6.765734e+01
8.579319e+01

SCALARS Force4.400000e+00 double 1
LOOKUP_TABLE Element_Force4.400000e+00
3.607756e+01
4.094461e+01
5.216360e+01
6.765734e+01
8.579319e+01

POINT_DATA       6
VECTORS DISPLACEMENT_4.600000e+00 double
0.000000e+00    0.000000e+00    0.000000e+00
1.851869e-03    0.000000e+00    0.000000e+00
3.945560e-03    0.000000e+00    0.000000e+00
6.610174e-03    0.000000e+00    0.000000e+00
1.009214e-02    0.000000e+00    0.000000e+00
1.456509e-02    0.000000e+00    0.000000e+00

CELL_DATA        5
TENSORS Element_Stress4.600000e+00 double
CELL_DATA        5
SCALARS Stress4.600000e+00 double 1
LOOKUP_TABLE Element_Stress4.600000e+00
3.636397e+01
4.101510e+01
5.190910e+01
6.729612e+01
8.562887e+01

SCALARS Force4.600000e+00 double 1
LOOKUP_TABLE Element_Force4.600000e+00
3.636397e+01
4.101510e+01
5.190910e+01
6.729612e+01
8.562887e+01

POINT_DATA       6
VECTORS DISPLACEMENT_4.800000e+00 double
0.000000e+00    0.000000e+00    0.000000e+00
2.089026e-03    0.000000e+00    0.000000e+00
4.402569e-03    0.000000e+00    0.000000e+00
7.245289e-03    0.000000e+00    0.000000e+00
1.084392e-02    0.000000e+00    0.000000e+00
1.535756e-02    0.000000e+00    0.000000e+00

CELL_DATA        5
TENSORS Element_Stress4.800000e+00 double
CELL_DATA        5
SCALARS Stress4.800000e+00 double 1
LOOKUP_TABLE Element_Stress4.800000e+00
4.092558e+01
4.522457e+01
5.528285e+01
6.947256e+01
8.637410e+01

SCALARS Force4.800000e+00 double 1
LOOKUP_TABLE Element_Force4.800000e+00
4.092558e+01
4.522457e+01
5.528285e+01
6.947256e+01
8.637410e+01

POINT_DATA       6
VECTORS DISPLACEMENT_5.000000e+00 double
0.000000e+00    0.000000e+00    0.000000e+00
2.523945e-03    0.000000e+00    0.000000e+00
5.246066e-03    0.000000e+00    0.000000e+00
8.428636e-03    0.000000e+00    0.000000e+00
1.225567e-02    0.000000e+00    0.000000e+00
1.685020e-02    0.000000e+00    0.000000e+00

CELL_DATA        5
TENSORS Element_Stress5.000000e+00 double
CELL_DATA        5
SCALARS Stress5.000000e+00 double 1
LOOKUP_TABLE Element_Stress5.000000e+00
4.923620e+01
5.299972e+01
6.168813e+01
7.371948e+01
8.785410e+01

SCALARS Force5.000000e+00 double 1
LOOKUP_TABLE Element_Force5.000000e+00
4.923620e+01
5.299972e+01
6.168813e+01
7.371948e+01
8.785410e+01

POINT_DATA       6
VECTORS DISPLACEMENT_5.200000e+00 double
0.000000e+00    0.000000e+00    0.000000e+00
3.121869e-03    0.000000e+00    0.000000e+00
6.402084e-03    0.000000e+00    0.000000e+00
1.004312e-02    0.000000e+00    0.000000e+00
1.417473e-02    0.000000e+00    0.000000e+00
1.887641e-02    0.000000e+00    0.000000e+00

CELL_DATA        5
TENSORS Element_Stress5.200000e+00 double
CELL_DATA        5
SCALARS Stress5.200000e+00 double 1
LOOKUP_TABLE Element_Stress5.200000e+00
6.054717e+01
6.352068e+01
7.026244e+01
7.935362e+01
8.981094e+01

SCALARS Force5.200000e+00 double 1
LOOKUP_TABLE Element_Force5.200000e+00
6.054717e+01
6.352068e+01
7.026244e+01
7.935362e+01
8.981094e+01

POINT_DATA       6
VECTORS DISPLACEMENT_5.400000e+00 double
0.000000e+00    0.000000e+00    0.000000e+00
3.834741e-03    0.000000e+00    0.000000e+00
7.773462e-03    0.000000e+00    0.000000e+00
1.194433e-02    0.000000e+00    0.000000e+00
1.642084e-02    0.000000e+00    0.000000e+00
2.124237e-02    0.000000e+00    0.000000e+00

CELL_DATA        5
TENSORS Element_Stress5.400000e+00 double
CELL_DATA        5
SCALARS Stress5.400000e+00 double 1
LOOKUP_TABLE Element_Stress5.400000e+00
7.386240e+01
7.578928e+01
8.007748e+01
8.569399e+01
9.199515e+01

SCALARS Force5.400000e+00 double 1
LOOKUP_TABLE Element_Force5.400000e+00
7.386240e+01
7.578928e+01
8.007748e+01
8.569399e+01
9.199515e+01

POINT_DATA       6
VECTORS DISPLACEMENT_5.600000e+00 double
0.000000e+00    0.000000e+00    0.000000e+00
4.602833e-03    0.000000e+00    0.000000e+00
9.244954e-03    0.000000e+00    0.000000e+00
1.397176e-02    0.000000e+00    0.000000e+00
1.880359e-02    0.000000e+00    0.000000e+00
2.374721e-02    0.000000e+00    0.000000e+00

CELL_DATA        5
TENSORS Element_Stress5.600000e+00 double
CELL_DATA        5
SCALARS Stress5.600000e+00 double 1
LOOKUP_TABLE Element_Stress5.600000e+00
8.800589e+01
8.872376e+01
9.026926e+01
9.218244e+01
9.421476e+01

SCALARS Force5.600000e+00 double 1
LOOKUP_TABLE Element_Force5.600000e+00
8.800589e+01
8.872376e+01
9.026926e+01
9.218244e+01
9.421476e+01

POINT_DATA       6
VECTORS DISPLACEMENT_5.800000e+00 double
0.000000e+00    0.000000e+00    0.000000e+00
5.361114e-03    0.000000e+00    0.000000e+00
1.069450e-02    0.000000e+00    0.000000e+00
1.596242e-02    0.000000e+00    0.000000e+00
2.113661e-02    0.000000e+00    0.000000e+00
2.619710e-02    0.000000e+00    0.000000e+00

CELL_DATA        5
TENSORS Element_Stress5.800000e+00 double
CELL_DATA        5
SCALARS Stress5.800000e+00 double 1
LOOKUP_TABLE Element_Stress5.800000e+00
1.017665e+02
1.012667e+02
1.000860e+02
9.839276e+01
9.633474e+01

SCALARS Force5.800000e+00 double 1
LOOKUP_TABLE Element_Force5.800000e+00
1.017665e+02
1.012667e+02
1.000860e+02
9.839276e+01
9.633474e+01

POINT_DATA       6
VECTORS DISPLACEMENT_6.000000e+00 double
0.000000e+00    0.000000e+00    0.000000e+00
6.047773e-03    0.000000e+00    0.000000e+00
1.200709e-02    0.000000e+00    0.000000e+00
1.776493e-02    0.000000e+00    0.000000e+00
2.324904e-02    0.000000e+00    0.000000e+00
2.841531e-02    0.000000e+00    0.000000e+00

CELL_DATA        5
TENSORS Element_Stress6.000000e+00 double
CELL_DATA        5
SCALARS Stress6.000000e+00 double 1
LOOKUP_TABLE Element_Stress6.000000e+00
1.140575e+02
1.124831e+02
1.088872e+02
1.039799e+02
9.824961e+01

SCALARS Force6.000000e+00 double 1
LOOKUP_TABLE Element_Force6.000000e+00
1.140575e+02
1.124831e+02
1.088872e+02
1.039799e+02
9.824961e+01

POINT_DATA       6
VECTORS DISPLACEMENT_6.200000e+00 double
0.000000e+00    0.000000e+00    0.000000e+00
6.611694e-03    0.000000e+00    0.000000e+00
1.308694e-02    0.000000e+00    0.000000e+00
1.925171e-02    0.000000e+00    0.000000e+00
2.499535e-02    0.000000e+00    0.000000e+00
3.025067e-02    0.000000e+00    0.000000e+00

CELL_DATA        5
TENSORS Element_Stress6.200000e+00 double
CELL_DATA        5
SCALARS Stress6.200000e+00 double 1
LOOKUP_TABLE Element_Stress6.200000e+00
1.240332e+02
1.216291e+02
1.161359e+02
1.086333e+02
9.985847e+01

SCALARS Force6.200000e+00 double 1
LOOKUP_TABLE Element_Force6.200000e+00
1.240332e+02
1.216291e+02
1.161359e+02
1.086333e+02
9.985847e+01

POINT_DATA       6
VECTORS DISPLACEMENT_6.400000e+00 double
0.000000e+00    0.000000e+00    0.000000e+00
7.016872e-03    0.000000e+00    0.000000e+00
1.386511e-02    0.000000e+00    0.000000e+00
2.032787e-02    0.000000e+00    0.000000e+00
2.626408e-02    0.000000e+00    0.000000e+00
3.158603e-02    0.000000e+00    0.000000e+00

CELL_DATA        5
TENSORS Element_Stress6.400000e+00 double
CELL_DATA        5
SCALARS Stress6.400000e+00 double 1
LOOKUP_TABLE Element_Stress6.400000e+00
1.311358e+02
1.281862e+02
1.214088e+02
1.120715e+02
1.010605e+02

SCALARS Force6.400000e+00 double 1
LOOKUP_TABLE Element_Force6.400000e+00
1.311358e+02
1.281862e+02
1.214088e+02
1.120715e+02
1.010605e+02

POINT_DATA       6
VECTORS DISPLACEMENT_6.600000e+00 double
0.000000e+00    0.000000e+00    0.000000e+00
7.243539e-03    0.000000e+00    0.000000e+00
1.430225e-02    0.000000e+00    0.000000e+00
2.093615e-02    0.000000e+00    0.000000e+00
2.698494e-02    0.000000e+00    0.000000e+00
3.234625e-02    0.000000e+00    0.000000e+00

CELL_DATA        5
TENSORS Element_Stress6.600000e+00 double
CELL_DATA        5
SCALARS Stress6.600000e+00 double 1
LOOKUP_TABLE Element_Stress6.600000e+00
1.350858e+02
1.318662e+02
1.244239e+02
1.140755e+02
1.017700e+02

SCALARS Force6.600000e+00 double 1
LOOKUP_TABLE Element_Force6.600000e+00
1.350858e+02
1.318662e+02
1.244239e+02
1.140755e+02
1.017700e+02

POINT_DATA       6
VECTORS DISPLACEMENT_6.800000e+00 double
0.000000e+00    0.000000e+00    0.000000e+00
7.287070e-03    0.000000e+00    0.000000e+00
1.438778e-02    0.000000e+00    0.000000e+00
2.105839e-02    0.000000e+00    0.000000e+00
2.713297e-02    0.000000e+00    0.000000e+00
3.250366e-02    0.000000e+00    0.000000e+00

CELL_DATA        5
TENSORS Element_Stress6.800000e+00 double
CELL_DATA        5
SCALARS Stress6.800000e+00 double 1
LOOKUP_TABLE Element_Stress6.800000e+00
1.358425e+02
1.325987e+02
1.250693e+02
1.145342e+02
1.019388e+02

SCALARS Force6.800000e+00 double 1
LOOKUP_TABLE Element_Force6.800000e+00
1.358425e+02
1.325987e+02
1.250693e+02
1.145342e+02
1.019388e+02

POINT_DATA       6
VECTORS DISPLACEMENT_7.000000e+00 double
0.000000e+00    0.000000e+00    0.000000e+00
7.156074e-03    0.000000e+00    0.000000e+00
1.413720e-02    0.000000e+00    0.000000e+00
2.071394e-02    0.000000e+00    0.000000e+00
2.672895e-02    0.000000e+00    0.000000e+00
3.207926e-02    0.000000e+00    0.000000e+00

CELL_DATA        5
TENSORS Element_Stress7.000000e+00 double
CELL_DATA        5
SCALARS Stress7.000000e+00 double 1
LOOKUP_TABLE Element_Stress7.000000e+00
1.335636e+02
1.305114e+02
1.234179e+02
1.134747e+02
1.015717e+02

SCALARS Force7.000000e+00 double 1
LOOKUP_TABLE Element_Force7.000000e+00
1.335636e+02
1.305114e+02
1.234179e+02
1.134747e+02
1.015717e+02

POINT_DATA       6
VECTORS DISPLACEMENT_7.200000e+00 double
0.000000e+00    0.000000e+00    0.000000e+00
6.870527e-03    0.000000e+00    0.000000e+00
1.358890e-02    0.000000e+00    0.000000e+00
1.995588e-02    0.000000e+00    0.000000e+00
2.583545e-02    0.000000e+00    0.000000e+00
3.113893e-02    0.000000e+00    0.000000e+00

CELL_DATA        5
TENSORS Element_Stress7.200000e+00 double
CELL_DATA        5
SCALARS Stress7.200000e+00 double 1
LOOKUP_TABLE Element_Stress7.200000e+00
1.285766e+02
1.259084e+02
1.197173e+02
1.110615e+02
1.007274e+02

SCALARS Force7.200000e+00 double 1
LOOKUP_TABLE Element_Force7.200000e+00
1.285766e+02
1.259084e+02
1.197173e+02
1.110615e+02
1.007274e+02

POINT_DATA       6
VECTORS DISPLACEMENT_7.400000e+00 double
0.000000e+00    0.000000e+00    0.000000e+00
6.460050e-03    0.000000e+00    0.000000e+00
1.280043e-02    0.000000e+00    0.000000e+00
1.886522e-02    0.000000e+00    0.000000e+00
2.454936e-02    0.000000e+00    0.000000e+00
2.978520e-02    0.000000e+00    0.000000e+00

CELL_DATA        5
TENSORS Element_Stress7.400000e+00 double
CELL_DATA        5
SCALARS Stress7.400000e+00 double 1
LOOKUP_TABLE Element_Stress7.400000e+00
1.213610e+02
1.192468e+02
1.143602e+02
1.075685e+02
9.950666e+01

SCALARS Force7.400000e+00 double 1
LOOKUP_TABLE Element_Force7.400000e+00
1.213610e+02
1.192468e+02
1.143602e+02
1.075685e+02
9.950666e+01

POINT_DATA       6
VECTORS DISPLACEMENT_7.600000e+00 double
0.000000e+00    0.000000e+00    0.000000e+00
5.961933e-03    0.000000e+00    0.000000e+00
1.184414e-02    0.000000e+00    0.000000e+00
1.754352e-02    0.000000e+00    0.000000e+00
2.299192e-02    0.000000e+00    0.000000e+00
2.814628e-02    0.000000e+00    0.000000e+00

CELL_DATA        5
TENSORS Element_Stress7.600000e+00 double
CELL_DATA        5
SCALARS Stress7.600000e+00 double 1
LOOKUP_TABLE Element_Stress7.600000e+00
1.125297e+02
1.111085e+02
1.078413e+02
1.033377e+02
9.803420e+01

SCALARS Force7.600000e+00 double 1
LOOKUP_TABLE Element_Force7.600000e+00
1.125297e+02
1.111085e+02
1.078413e+02
1.033377e+02
9.803420e+01

POINT_DATA       6
VECTORS DISPLACEMENT_7.800000e+00 double
0.000000e+00    0.000000e+00    0.000000e+00
5.418501e-03    0.000000e+00    0.000000e+00
1.080165e-02    0.000000e+00    0.000000e+00
1.610428e-02    0.000000e+00    0.000000e+00
2.129758e-02    0.000000e+00    0.000000e+00
2.636397e-02    0.000000e+00    0.000000e+00

CELL_DATA        5
TENSORS Element_Stress7.800000e+00 double
CELL_DATA        5
SCALARS Stress7.800000e+00 double 1
LOOKUP_TABLE Element_Stress7.800000e+00
1.027998e+02
1.021633e+02
1.007123e+02
9.873822e+01
9.644160e+01

SCALARS Force7.800000e+00 double 1
LOOKUP_TABLE Element_Force7.800000e+00
1.027998e+02
1.021633e+02
1.007123e+02
9.873822e+01
9.644160e+01

POINT_DATA       6
VECTORS DISPLACEMENT_8.000000e+00 double
0.000000e+00    0.000000e+00    0.000000e+00
4.873767e-03    0.000000e+00    0.000000e+00
9.757273e-03    0.000000e+00    0.000000e+00
1.466373e-02    0.000000e+00    0.000000e+00
1.960296e-02    0.000000e+00    0.000000e+00
2.458187e-02    0.000000e+00    0.000000e+00

CELL_DATA        5
TENSORS Element_Stress8.000000e+00 double
CELL_DATA        5
SCALARS Stress8.000000e+00 double 1
LOOKUP_TABLE Element_Stress8.000000e+00
9.294540e+01
9.312248e+01
9.353963e+01
9.413512e+01
9.485543e+01

SCALARS Force8.000000e+00 double 1
LOOKUP_TABLE Element_Force8.000000e+00
9.294540e+01
9.312248e+01
9.353963e+01
9.413512e+01
9.485543e+01

POINT_DATA       6
VECTORS DISPLACEMENT_8.200000e+00 double
0.000000e+00    0.000000e+00    0.000000e+00
4.369729e-03    0.000000e+00    0.000000e+00
8.791174e-03    0.000000e+00    0.000000e+00
1.333166e-02    0.000000e+00    0.000000e+00
1.803648e-02    0.000000e+00    0.000000e+00
2.293474e-02    0.000000e+00    0.000000e+00

CELL_DATA        5
TENSORS Element_Stress8.200000e+00 double
CELL_DATA        5
SCALARS Stress8.200000e+00 double 1
LOOKUP_TABLE Element_Stress8.200000e+00
8.373556e+01
8.468462e+01
8.686566e+01
8.986826e+01
9.339070e+01

SCALARS Force8.200000e+00 double 1
LOOKUP_TABLE Element_Force8.200000e+00
8.373556e+01
8.468462e+01
8.686566e+01
8.986826e+01
9.339070e+01

POINT_DATA       6
VECTORS DISPLACEMENT_8.400000e+00 double
0.000000e+00    0.000000e+00    0.000000e+00
3.942880e-03    0.000000e+00    0.000000e+00
7.972946e-03    0.000000e+00    0.000000e+00
1.220332e-02    0.000000e+00    0.000000e+00
1.670942e-02    0.000000e+00    0.000000e+00
2.153929e-02    0.000000e+00    0.000000e+00

CELL_DATA        5
TENSORS Element_Stress8.400000e+00 double
CELL_DATA        5
SCALARS Stress8.400000e+00 double 1
LOOKUP_TABLE Element_Stress8.400000e+00
7.586628e+01
7.747888e+01
8.117354e+01
8.623602e+01
9.214686e+01

SCALARS Force8.400000e+00 double 1
LOOKUP_TABLE Element_Force8.400000e+00
7.586628e+01
7.747888e+01
8.117354e+01
8.623602e+01
9.214686e+01

POINT_DATA       6
VECTORS DISPLACEMENT_8.600000e+00 double
0.000000e+00    0.000000e+00    0.000000e+00
3.621464e-03    0.000000e+00    0.000000e+00
7.356576e-03    0.000000e+00    0.000000e+00
1.135283e-02    0.000000e+00    0.000000e+00
1.570863e-02    0.000000e+00    0.000000e+00
2.048672e-02    0.000000e+00    0.000000e+00

CELL_DATA        5
TENSORS Element_Stress8.600000e+00 double