TITLE = "1D Tensile with 5 elemets"
VARIABLES =    "X"   "Y"   "Z" "DIS"

ZONE T="Time =       0.0000" F=FEPOINT N=    6 E=    5 ET=LINESEG C=CYAN
      0.0000      0.0000      0.0000      0.0000
     10.0000      0.0000      0.0000      0.0000
     20.0000      0.0000      0.0000      0.0000
     30.0000      0.0000      0.0000      0.0000
     40.0000      0.0000      0.0000      0.0000
     50.0000      0.0000      0.0000      0.0000
           1           2
           2           3
           3           4
           4           5
           5           6
ZONE T="Time =       0.0500" F=FEPOINT N=    6 E=    5 ET=LINESEG C=CYAN
      0.0000      0.0000      0.0000      0.0000
     10.0000      0.0000      0.0000      0.0000
     20.0000      0.0000      0.0000      0.0000
     30.0000      0.0000      0.0000      0.0000
     40.0010      0.0000      0.0000      0.0010
     50.0247      0.0000      0.0000      0.0247
           1           2
           2           3
           3           4
           4           5
           5           6
ZONE T="Time =       0.1000" F=FEPOINT N=    6 E=    5 ET=LINESEG C=CYAN
      0.0000      0.0000      0.0000      0.0000
     10.0000      0.0000      0.0000      0.0000
     20.0000      0.0000      0.0000      0.0000
     30.0004      0.0000      0.0000      0.0004
     40.0070      0.0000      0.0000      0.0070
     50.0881      0.0000      0.0000      0.0881
           1           2
           2           3
           3           4
           4           5
           5           6
ZONE T="Time =       0.1500" F=FEPOINT N=    6 E=    5 ET=LINESEG C=CYAN
      0.0000      0.0000      0.0000      0.0000
     10.0000      0.0000      0.0000      0.0000
     20.0001      0.0000      0.0000      0.0001
     30.0020      0.0000      0.0000      0.0020
     40.0226      0.0000      0.0000      0.0226
     50.1793      0.0000      0.0000      0.1793
           1           2
           2           3
           3           4
           4           5
           5           6
ZONE T="Time =       0.2000" F=FEPOINT N=    6 E=    5 ET=LINESEG C=CYAN
      0.0000      0.0000      0.0000      0.0000
     10.0001      0.0000      0.0000      0.0001
     20.0006      0.0000      0.0000      0.0006
     30.0062      0.0000      0.0000      0.0062
     40.0509      0.0000      0.0000      0.0509
     50.2884      0.0000      0.0000      0.2884
           1           2
           2           3
           3           4
           4           5
           5           6
ZONE T="Time =       0.2500" F=FEPOINT N=    6 E=    5 ET=LINESEG C=CYAN
      0.0000      0.0000      0.0000      0.0000
     10.0002      0.0000      0.0000      0.0002
     20.0018      0.0000      0.0000      0.0018
     30.0147      0.0000      0.0000      0.0147
     40.0936      0.0000      0.0000      0.0936
     50.4075      0.0000      0.0000      0.4075
           1           2
           2           3
           3           4
           4           5
           5           6
ZONE T="Time =       0.3000" F=FEPOINT N=    6 E=    5 ET=LINESEG C=CYAN
      0.0000      0.0000      0.0000      0.0000
     10.0006      0.0000      0.0000      0.0006
     20.0043      0.0000      0.0000      0.0043
     30.0294      0.0000      0.0000      0.0294
     40.1510      0.0000      0.0000      0.1510
     50.5304      0.0000      0.0000      0.5304
           1           2
           2           3
           3           4
           4           5
           5           6
ZONE T="Time =       0.3500" F=FEPOINT N=    6 E=    5 ET=LINESEG C=CYAN
      0.0000      0.0000      0.0000      0.0000
     10.0015      0.0000      0.0000      0.0015
     20.0092      0.0000      0.0000      0.0092
     30.0519      0.0000      0.0000      0.0519
     40.2221      0.0000      0.0000      0.2221
     50.6531      0.0000      0.0000      0.6531
           1           2
           2           3
           3           4
           4           5
           5           6
ZONE T="Time =       0.4000" F=FEPOINT N=    6 E=    5 ET=LINESEG C=CYAN
      0.0000      0.0000      0.0000      0.0000
     10.0032      0.0000      0.0000      0.0032
     20.0173      0.0000      0.0000      0.0173
     30.0836      0.0000      0.0000      0.0836
     40.3052      0.0000      0.0000      0.3052
     50.7734      0.0000      0.0000      0.7734
           1           2
           2           3
           3           4
           4           5
           5           6
ZONE T="Time =       0.4500" F=FEPOINT N=    6 E=    5 ET=LINESEG C=CYAN
      0.0000      0.0000      0.0000      0.0000
     10.0062      0.0000      0.0000      0.0062
     20.0298      0.0000      0.0000      0.0298
     30.1254      0.0000      0.0000      0.1254
     40.3980      0.0000      0.0000      0.3980
     50.8903      0.0000      0.0000      0.8903
           1           2
           2           3
           3           4
           4           5
           5           6
ZONE T="Time =       0.5000" F=FEPOINT N=    6 E=    5 ET=LINESEG C=CYAN
      0.0000      0.0000      0.0000      0.0000
     10.0112      0.0000      0.0000      0.0112
     20.0479      0.0000      0.0000      0.0479
     30.1775      0.0000      0.0000      0.1775
     40.4982      0.0000      0.0000      0.4982
     51.0038      0.0000      0.0000      1.0038
           1           2
           2           3
           3           4
           4           5
           5           6
ZONE T="Time =       0.5500" F=FEPOINT N=    6 E=    5 ET=LINESEG C=CYAN
      0.0000      0.0000      0.0000      0.0000
     10.0187      0.0000      0.0000      0.0187
     20.0726      0.0000      0.0000      0.0726
     30.2398      0.0000      0.0000      0.2398
     40.6034      0.0000      0.0000      0.6034
     51.1144      0.0000      0.0000      1.1144
           1           2
           2           3
           3           4
           4           5
           5           6
ZONE T="Time =       0.6000" F=FEPOINT N=    6 E=    5 ET=LINESEG C=CYAN
      0.0000      0.0000      0.0000      0.0000
     10.0295      0.0000      0.0000      0.0295
     20.1048      0.0000      0.0000      0.1048
     30.3117      0.0000      0.0000      0.3117
     40.7118      0.0000      0.0000      0.7118
     51.2229      0.0000      0.0000      1.2229
           1           2
           2           3
           3           4
           4           5
           5           6
ZONE T="Time =       0.6500" F=FEPOINT N=    6 E=    5 ET=LINESEG C=CYAN
      0.0000      0.0000      0.0000      0.0000
     10.0443      0.0000      0.0000      0.0443
     20.1450      0.0000      0.0000      0.1450
     30.3921      0.0000      0.0000      0.3921
     40.8217      0.0000      0.0000      0.8217
     51.3301      0.0000      0.0000      1.3301
           1           2
           2           3
           3           4
           4           5
           5           6
ZONE T="Time =       0.7000" F=FEPOINT N=    6 E=    5 ET=LINESEG C=CYAN
      0.0000      0.0000      0.0000      0.0000
     10.0636      0.0000      0.0000      0.0636
     20.1936      0.0000      0.0000      0.1936
     30.4798      0.0000      0.0000      0.4798
     40.9321      0.0000      0.0000      0.9321
     51.4366      0.0000      0.0000      1.4366
           1           2
           2           3
           3           4
           4           5
           5           6
ZONE T="Time =       0.7500" F=FEPOINT N=    6 E=    5 ET=LINESEG C=CYAN
      0.0000      0.0000      0.0000      0.0000
     10.0879      0.0000      0.0000      0.0879
     20.2504      0.0000      0.0000      0.2504
     30.5735      0.0000      0.0000      0.5735
     41.0423      0.0000      0.0000      1.0423
     51.5429      0.0000      0.0000      1.5429
           1           2
           2           3
           3           4
           4           5
           5           6
ZONE T="Time =       0.8000" F=FEPOINT N=    6 E=    5 ET=LINESEG C=CYAN
      0.0000      0.0000      0.0000      0.0000
     10.1174      0.0000      0.0000      0.1174
     20.3150      0.0000      0.0000      0.3150
     30.6718      0.0000      0.0000      0.6718
     41.1518      0.0000      0.0000      1.1518
     51.6493      0.0000      0.0000      1.6493
           1           2
           2           3
           3           4
           4           5
           5           6
ZONE T="Time =       0.8500" F=FEPOINT N=    6 E=    5 ET=LINESEG C=CYAN
      0.0000      0.0000      0.0000      0.0000
     10.1520      0.0000      0.0000      0.1520
     20.3868      0.0000      0.0000      0.3868
     30.7735      0.0000      0.0000      0.7735
     41.2605      0.0000      0.0000      1.2605
     51.7560      0.0000      0.0000      1.7560
           1           2
           2           3
           3           4
           4           5
           5           6
ZONE T="Time =       0.9000" F=FEPOINT N=    6 E=    5 ET=LINESEG C=CYAN
      0.0000      0.0000      0.0000      0.0000
     10.1914      0.0000      0.0000      0.1914
     20.4648      0.0000      0.0000      0.4648
     30.8775      0.0000      0.0000      0.8775
     41.3684      0.0000      0.0000      1.3684
     51.8628      0.0000      0.0000      1.8628
           1           2
           2           3
           3           4
           4           5
           5           6
ZONE T="Time =       0.9500" F=FEPOINT N=    6 E=    5 ET=LINESEG C=CYAN
      0.0000      0.0000      0.0000      0.0000
     10.2352      0.0000      0.0000      0.2352
     20.5478      0.0000      0.0000      0.5478
     30.9827      0.0000      0.0000      0.9827
     41.4756      0.0000      0.0000      1.4756
     51.9698      0.0000      0.0000      1.9698
           1           2
           2           3
           3           4
           4           5
           5           6
ZONE T="Time =       1.0000" F=FEPOINT N=    6 E=    5 ET=LINESEG C=CYAN
      0.0000      0.0000      0.0000      0.0000
     10.2827      0.0000      0.0000      0.2827
     20.6347      0.0000      0.0000      0.6347
     31.0884      0.0000      0.0000      1.0884
     41.5822      0.0000      0.0000      1.5822
     52.0768      0.0000      0.0000      2.0768
           1           2
           2           3
           3           4
           4           5
           5           6
ZONE T="Time =       1.0500" F=FEPOINT N=    6 E=    5 ET=LINESEG C=CYAN
      0.0000      0.0000      0.0000      0.0000
     10.3329      0.0000      0.0000      0.3329
     20.7239      0.0000      0.0000      0.7239
     31.1939      0.0000      0.0000      1.1939
     41.6883      0.0000      0.0000      1.6883
     52.1837      0.0000      0.0000      2.1837
           1           2
           2           3
           3           4
           4           5
           5           6
ZONE T="Time =       1.1000" F=FEPOINT N=    6 E=    5 ET=LINESEG C=CYAN
      0.0000      0.0000      0.0000      0.0000
     10.3848      0.0000      0.0000      0.3848
     20.8144      0.0000      0.0000      0.8144
     31.2987      0.0000      0.0000      1.2987
     41.7940      0.0000      0.0000      1.7940
     52.2903      0.0000      0.0000      2.2903
           1           2
           2           3
           3           4
           4           5
           5           6
ZONE T="Time =       1.1500" F=FEPOINT N=    6 E=    5 ET=LINESEG C=CYAN
      0.0000      0.0000      0.0000      0.0000
     10.4374      0.0000      0.0000      0.4374
     20.9046      0.0000      0.0000      0.9046
     31.4022      0.0000      0.0000      1.4022
     41.8991      0.0000      0.0000      1.8991
     52.3966      0.0000      0.0000      2.3966
           1           2
           2           3
           3           4
           4           5
           5           6
ZONE T="Time =       1.2000" F=FEPOINT N=    6 E=    5 ET=LINESEG C=CYAN
      0.0000      0.0000      0.0000      0.0000
     10.4897      0.0000      0.0000      0.4897
     20.9936      0.0000      0.0000      0.9936
     31.5041      0.0000      0.0000      1.5041
     42.0037      0.0000      0.0000      2.0037
     52.5023      0.0000      0.0000      2.5023
           1           2
           2           3
           3           4
           4           5
           5           6
ZONE T="Time =       1.2500" F=FEPOINT N=    6 E=    5 ET=LINESEG C=CYAN
      0.0000      0.0000      0.0000      0.0000
     10.5407      0.0000      0.0000      0.5407
     21.0801      0.0000      0.0000      1.0801
     31.6040      0.0000      0.0000      1.6040
     42.1075      0.0000      0.0000      2.1075
     52.6074      0.0000      0.0000      2.6074
           1           2
           2           3
           3           4
           4           5
           5           6
ZONE T="Time =       1.3000" F=FEPOINT N=    6 E=    5 ET=LINESEG C=CYAN
      0.0000      0.0000      0.0000      0.0000
     10.5896      0.0000      0.0000      0.5896
     21.1633      0.0000      0.0000      1.1633
     31.7014      0.0000      0.0000      1.7014
     42.2102      0.0000      0.0000      2.2102
     52.7117      0.0000      0.0000      2.7117
           1           2
           2           3
           3           4
           4           5
           5           6
ZONE T="Time =       1.3500" F=FEPOINT N=    6 E=    5 ET=LINESEG C=CYAN
      0.0000      0.0000      0.0000      0.0000
     10.6357      0.0000      0.0000      0.6357
     21.2425      0.0000      0.0000      1.2425
     31.7961      0.0000      0.0000      1.7961
     42.3117      0.0000      0.0000      2.3117
     52.8150      0.0000      0.0000      2.8150
           1           2
           2           3
           3           4
           4           5
           5           6
ZONE T="Time =       1.4000" F=FEPOINT N=    6 E=    5 ET=LINESEG C=CYAN
      0.0000      0.0000      0.0000      0.0000
     10.6783      0.0000      0.0000      0.6783
     21.3170      0.0000      0.0000      1.3170
     31.8875      0.0000      0.0000      1.8875
     42.4115      0.0000      0.0000      2.4115
     52.9171      0.0000      0.0000      2.9171
           1           2
           2           3
           3           4
           4           5
           5           6
ZONE T="Time =       1.4500" F=FEPOINT N=    6 E=    5 ET=LINESEG C=CYAN
      0.0000      0.0000      0.0000      0.0000
     10.7173      0.0000      0.0000      0.7173
     21.3864      0.0000      0.0000      1.3864
     31.9753      0.0000      0.0000      1.9753
     42.5092      0.0000      0.0000      2.5092
     53.0175      0.0000      0.0000      3.0175
           1           2
           2           3
           3           4
           4           5
           5           6
ZONE T="Time =       1.5000" F=FEPOINT N=    6 E=    5 ET=LINESEG C=CYAN
      0.0000      0.0000      0.0000      0.0000
     10.7523      0.0000      0.0000      0.7523
     21.4504      0.0000      0.0000      1.4504
     32.0590      0.0000      0.0000      2.0590
     42.6043      0.0000      0.0000      2.6043
     53.1160      0.0000      0.0000      3.1160
           1           2
           2           3
           3           4
           4           5
           5           6
ZONE T="Time =       1.5500" F=FEPOINT N=    6 E=    5 ET=LINESEG C=CYAN
      0.0000      0.0000      0.0000      0.0000
     10.7833      0.0000      0.0000      0.7833
     21.5088      0.0000      0.0000      1.5088
     32.1384      0.0000      0.0000      2.1384
     42.6965      0.0000      0.0000      2.6965
     53.2121      0.0000      0.0000      3.2121
           1           2
           2           3
           3           4
           4           5
           5           6
ZONE T="Time =       1.6000" F=FEPOINT N=    6 E=    5 ET=LINESEG C=CYAN
      0.0000      0.0000      0.0000      0.0000
     10.8104      0.0000      0.0000      0.8104
     21.5617      0.0000      0.0000      1.5617
     32.2130      0.0000      0.0000      2.2130
     42.7852      0.0000      0.0000      2.7852
     53.3054      0.0000      0.0000      3.3054
           1           2
           2           3
           3           4
           4           5
           5           6
ZONE T="Time =       1.6500" F=FEPOINT N=    6 E=    5 ET=LINESEG C=CYAN
      0.0000      0.0000      0.0000      0.0000
     10.8339      0.0000      0.0000      0.8339
     21.6090      0.0000      0.0000      1.6090
     32.2826      0.0000      0.0000      2.2826
     42.8698      0.0000      0.0000      2.8698
     53.3951      0.0000      0.0000      3.3951
           1           2
           2           3
           3           4
           4           5
           5           6
ZONE T="Time =       1.7000" F=FEPOINT N=    6 E=    5 ET=LINESEG C=CYAN
      0.0000      0.0000      0.0000      0.0000
     10.8538      0.0000      0.0000      0.8538
     21.6510      0.0000      0.0000      1.6510
     32.3468      0.0000      0.0000      2.3468
     42.9500      0.0000      0.0000      2.9500
     53.4809      0.0000      0.0000      3.4809
           1           2
           2           3
           3           4
           4           5
           5           6
ZONE T="Time =       1.7500" F=FEPOINT N=    6 E=    5 ET=LINESEG C=CYAN
      0.0000      0.0000      0.0000      0.0000
     10.8706      0.0000      0.0000      0.8706
     21.6878      0.0000      0.0000      1.6878
     32.4055      0.0000      0.0000      2.4055
     43.0251      0.0000      0.0000      3.0251
     53.5619      0.0000      0.0000      3.5619
           1           2
           2           3
           3           4
           4           5
           5           6
ZONE T="Time =       1.8000" F=FEPOINT N=    6 E=    5 ET=LINESEG C=CYAN
      0.0000      0.0000      0.0000      0.0000
     10.8846      0.0000      0.0000      0.8846
     21.7198      0.0000      0.0000      1.7198
     32.4585      0.0000      0.0000      2.4585
     43.0946      0.0000      0.0000      3.0946
     53.6377      0.0000      0.0000      3.6377
           1           2
           2           3
           3           4
           4           5
           5           6
ZONE T="Time =       1.8500" F=FEPOINT N=    6 E=    5 ET=LINESEG C=CYAN
      0.0000      0.0000      0.0000      0.0000
     10.8960      0.0000      0.0000      0.8960
     21.7471      0.0000      0.0000      1.7471
     32.5058      0.0000      0.0000      2.5058
     43.1582      0.0000      0.0000      3.1582
     53.7075      0.0000      0.0000      3.7075
           1           2
           2           3
           3           4
           4           5
           5           6
ZONE T="Time =       1.9000" F=FEPOINT N=    6 E=    5 ET=LINESEG C=CYAN
      0.0000      0.0000      0.0000      0.0000
     10.9052      0.0000      0.0000      0.9052
     21.7701      0.0000      0.0000      1.7701
     32.5472      0.0000      0.0000      2.5472
     43.2153      0.0000      0.0000      3.2153
     53.7708      0.0000      0.0000      3.7708
           1           2
           2           3
           3           4
           4           5
           5           6
ZONE T="Time =       1.9500" F=FEPOINT N=    6 E=    5 ET=LINESEG C=CYAN
      0.0000      0.0000      0.0000      0.0000
     10.9126      0.0000      0.0000      0.9126
     21.7891      0.0000      0.0000      1.7891
     32.5827      0.0000      0.0000      2.5827
     43.2656      0.0000      0.0000      3.2656
     53.8271      0.0000      0.0000      3.8271
           1           2
           2           3
           3           4
           4           5
           5           6
ZONE T="Time =       2.0000" F=FEPOINT N=    6 E=    5 ET=LINESEG C=CYAN
      0.0000      0.0000      0.0000      0.0000
     10.9182      0.0000      0.0000      0.9182
     21.8044      0.0000      0.0000      1.8044
     32.6124      0.0000      0.0000      2.6124
     43.3088      0.0000      0.0000      3.3088
     53.8758      0.0000      0.0000      3.8758
           1           2
           2           3
           3           4
           4           5
           5           6
ZONE T="Time =       2.0500" F=FEPOINT N=    6 E=    5 ET=LINESEG C=CYAN
      0.0000      0.0000      0.0000      0.0000
     10.9223      0.0000      0.0000      0.9223
     21.8161      0.0000      0.0000      1.8161
     32.6363      0.0000      0.0000      2.6363
     43.3445      0.0000      0.0000      3.3445
     53.9165      0.0000      0.0000      3.9165
           1           2
           2           3
           3           4
           4           5
           5           6
ZONE T="Time =       2.1000" F=FEPOINT N=    6 E=    5 ET=LINESEG C=CYAN
      0.0000      0.0000      0.0000      0.0000
     10.9251      0.0000      0.0000      0.9251
     21.8245      0.0000      0.0000      1.8245
     32.6545      0.0000      0.0000      2.6545
     43.3727      0.0000      0.0000      3.3727
     53.9489      0.0000      0.0000      3.9489
           1           2
           2           3
           3           4
           4           5
           5           6
ZONE T="Time =       2.1500" F=FEPOINT N=    6 E=    5 ET=LINESEG C=CYAN
      0.0000      0.0000      0.0000      0.0000
     10.9266      0.0000      0.0000      0.9266
     21.8299      0.0000      0.0000      1.8299
     32.6671      0.0000      0.0000      2.6671
     43.3932      0.0000      0.0000      3.3932
     53.9728      0.0000      0.0000      3.9728
           1           2
           2           3
           3           4
           4           5
           5           6
ZONE T="Time =       2.2000" F=FEPOINT N=    6 E=    5 ET=LINESEG C=CYAN
      0.0000      0.0000      0.0000      0.0000
     10.9270      0.0000      0.0000      0.9270
     21.8322      0.0000      0.0000      1.8322
     32.6742      0.0000      0.0000      2.6742
     43.4058      0.0000      0.0000      3.4058
     53.9881      0.0000      0.0000      3.9881
           1           2
           2           3
           3           4
           4           5
           5           6
ZONE T="Time =       2.2500" F=FEPOINT N=    6 E=    5 ET=LINESEG C=CYAN
      0.0000      0.0000      0.0000      0.0000
     10.9262      0.0000      0.0000      0.9262
     21.8316      0.0000      0.0000      1.8316
     32.6758      0.0000      0.0000      2.6758
     43.4108      0.0000      0.0000      3.4108
     53.9946      0.0000      0.0000      3.9946
           1           2
           2           3
           3           4
           4           5
           5           6
ZONE T="Time =       2.3000" F=FEPOINT N=    6 E=    5 ET=LINESEG C=CYAN
      0.0000      0.0000      0.0000      0.0000
     10.9242      0.0000      0.0000      0.9242
     21.8281      0.0000      0.0000      1.8281
     32.6721      0.0000      0.0000      2.6721
     43.4081      0.0000      0.0000      3.4081
     53.9926      0.0000      0.0000      3.9926
           1           2
           2           3
           3           4
           4           5
           5           6
ZONE T="Time =       2.3500" F=FEPOINT N=    6 E=    5 ET=LINESEG C=CYAN
      0.0000      0.0000      0.0000      0.0000
     10.9211      0.0000      0.0000      0.9211
     21.8217      0.0000      0.0000      1.8217
     32.6631      0.0000      0.0000      2.6631
     43.3978      0.0000      0.0000      3.3978
     53.9821      0.0000      0.0000      3.9821
           1           2
           2           3
           3           4
           4           5
           5           6
ZONE T="Time =       2.4000" F=FEPOINT N=    6 E=    5 ET=LINESEG C=CYAN
      0.0000      0.0000      0.0000      0.0000
     10.9167      0.0000      0.0000      0.9167
     21.8124      0.0000      0.0000      1.8124
     32.6490      0.0000      0.0000      2.6490
     43.3803      0.0000      0.0000      3.3803
     53.9634      0.0000      0.0000      3.9634
           1           2
           2           3
           3           4
           4           5
           5           6
ZONE T="Time =       2.4500" F=FEPOINT N=    6 E=    5 ET=LINESEG C=CYAN
      0.0000      0.0000      0.0000      0.0000
     10.9110      0.0000      0.0000      0.9110
     21.8002      0.0000      0.0000      1.8002
     32.6299      0.0000      0.0000      2.6299
     43.3558      0.0000      0.0000      3.3558
     53.9368      0.0000      0.0000      3.9368
           1           2
           2           3
           3           4
           4           5
           5           6
ZONE T="Time =       2.5000" F=FEPOINT N=    6 E=    5 ET=LINESEG C=CYAN
      0.0000      0.0000      0.0000      0.0000
     10.9039      0.0000      0.0000      0.9039
     21.7851      0.0000      0.0000      1.7851
     32.6058      0.0000      0.0000      2.6058
     43.3245      0.0000      0.0000      3.3245
     53.9028      0.0000      0.0000      3.9028
           1           2
           2           3
           3           4
           4           5
           5           6
ZONE T="Time =       2.5500" F=FEPOINT N=    6 E=    5 ET=LINESEG C=CYAN
      0.0000      0.0000      0.0000      0.0000
     10.8954      0.0000      0.0000      0.8954
     21.7669      0.0000      0.0000      1.7669
     32.5770      0.0000      0.0000      2.5770
     43.2869      0.0000      0.0000      3.2869
     53.8617      0.0000      0.0000      3.8617
           1           2
           2           3
           3           4
           4           5
           5           6
ZONE T="Time =       2.6000" F=FEPOINT N=    6 E=    5 ET=LINESEG C=CYAN
      0.0000      0.0000      0.0000      0.0000
     10.8853      0.0000      0.0000      0.8853
     21.7456      0.0000      0.0000      1.7456
     32.5435      0.0000      0.0000      2.5435
     43.2434      0.0000      0.0000      3.2434
     53.8142      0.0000      0.0000      3.8142
           1           2
           2           3
           3           4
           4           5
           5           6
ZONE T="Time =       2.6500" F=FEPOINT N=    6 E=    5 ET=LINESEG C=CYAN
      0.0000      0.0000      0.0000      0.0000
     10.8737      0.0000      0.0000      0.8737
     21.7212      0.0000      0.0000      1.7212
     32.5055      0.0000      0.0000      2.5055
     43.1942      0.0000      0.0000      3.1942
     53.7607      0.0000      0.0000      3.7607
           1           2
           2           3
           3           4
           4           5
           5           6
ZONE T="Time =       2.7000" F=FEPOINT N=    6 E=    5 ET=LINESEG C=CYAN
      0.0000      0.0000      0.0000      0.0000
     10.8604      0.0000      0.0000      0.8604
     21.6937      0.0000      0.0000      1.6937
     32.4632      0.0000      0.0000      2.4632
     43.1399      0.0000      0.0000      3.1399
     53.7017      0.0000      0.0000      3.7017
           1           2
           2           3
           3           4
           4           5
           5           6
ZONE T="Time =       2.7500" F=FEPOINT N=    6 E=    5 ET=LINESEG C=CYAN
      0.0000      0.0000      0.0000      0.0000
     10.8455      0.0000      0.0000      0.8455
     21.6632      0.0000      0.0000      1.6632
     32.4168      0.0000      0.0000      2.4168
     43.0809      0.0000      0.0000      3.0809
     53.6378      0.0000      0.0000      3.6378
           1           2
           2           3
           3           4
           4           5
           5           6
ZONE T="Time =       2.8000" F=FEPOINT N=    6 E=    5 ET=LINESEG C=CYAN
      0.0000      0.0000      0.0000      0.0000
     10.8289      0.0000      0.0000      0.8289
     21.6296      0.0000      0.0000      1.6296
     32.3665      0.0000      0.0000      2.3665
     43.0176      0.0000      0.0000      3.0176
     53.5695      0.0000      0.0000      3.5695
           1           2
           2           3
           3           4
           4           5
           5           6
ZONE T="Time =       2.8500" F=FEPOINT N=    6 E=    5 ET=LINESEG C=CYAN
      0.0000      0.0000      0.0000      0.0000
     10.8107      0.0000      0.0000      0.8107
     21.5930      0.0000      0.0000      1.5930
     32.3126      0.0000      0.0000      2.3126
     42.9505      0.0000      0.0000      2.9505
     53.4974      0.0000      0.0000      3.4974
           1           2
           2           3
           3           4
           4           5
           5           6
ZONE T="Time =       2.9000" F=FEPOINT N=    6 E=    5 ET=LINESEG C=CYAN
      0.0000      0.0000      0.0000      0.0000
     10.7909      0.0000      0.0000      0.7909
     21.5537      0.0000      0.0000      1.5537
     32.2553      0.0000      0.0000      2.2553
     42.8800      0.0000      0.0000      2.8800
     53.4220      0.0000      0.0000      3.4220
           1           2
           2           3
           3           4
           4           5
           5           6
ZONE T="Time =       2.9500" F=FEPOINT N=    6 E=    5 ET=LINESEG C=CYAN
      0.0000      0.0000      0.0000      0.0000
     10.7695      0.0000      0.0000      0.7695
     21.5116      0.0000      0.0000      1.5116
     32.1950      0.0000      0.0000      2.1950
     42.8066      0.0000      0.0000      2.8066
     53.3437      0.0000      0.0000      3.3437
           1           2
           2           3
           3           4
           4           5
           5           6
ZONE T="Time =       3.0000" F=FEPOINT N=    6 E=    5 ET=LINESEG C=CYAN
      0.0000      0.0000      0.0000      0.0000
     10.7468      0.0000      0.0000      0.7468
     21.4672      0.0000      0.0000      1.4672
     32.1319      0.0000      0.0000      2.1319
     42.7306      0.0000      0.0000      2.7306
     53.2631      0.0000      0.0000      3.2631
           1           2