TITLE = "1D Tensile with 5 elemets"
VARIABLES =    "X"   "Y"   "Z" "DIS"

ZONE T="Time =       0.0000" F=FEPOINT N=    6 E=    5 ET=LINESEG C=CYAN
      0.0000      0.0000      0.0000      0.0000
     10.0000      0.0000      0.0000      0.0000
     20.0000      0.0000      0.0000      0.0000
     30.0000      0.0000      0.0000      0.0000
     40.0000      0.0000      0.0000      0.0000
     50.0000      0.0000      0.0000      0.0000
           1           2
           2           3
           3           4
           4           5
           5           6
ZONE T="Time =       0.2000" F=FEPOINT N=    6 E=    5 ET=LINESEG C=CYAN
      0.0000      0.0000      0.0000      0.0000
     10.0001      0.0000      0.0000      0.0001
     20.0006      0.0000      0.0000      0.0006
     30.0062      0.0000      0.0000      0.0062
     40.0509      0.0000      0.0000      0.0509
     50.2884      0.0000      0.0000      0.2884
           1           2
           2           3
           3           4
           4           5
           5           6
ZONE T="Time =       0.4000" F=FEPOINT N=    6 E=    5 ET=LINESEG C=CYAN
      0.0000      0.0000      0.0000      0.0000
     10.0032      0.0000      0.0000      0.0032
     20.0173      0.0000      0.0000      0.0173
     30.0836      0.0000      0.0000      0.0836
     40.3052      0.0000      0.0000      0.3052
     50.7734      0.0000      0.0000      0.7734
           1           2
           2           3
           3           4
           4           5
           5           6
ZONE T="Time =       0.6000" F=FEPOINT N=    6 E=    5 ET=LINESEG C=CYAN
      0.0000      0.0000      0.0000      0.0000
     10.0295      0.0000      0.0000      0.0295
     20.1048      0.0000      0.0000      0.1048
     30.3117      0.0000      0.0000      0.3117
     40.7118      0.0000      0.0000      0.7118
     51.2229      0.0000      0.0000      1.2229
           1           2
           2           3
           3           4
           4           5
           5           6
ZONE T="Time =       0.8000" F=FEPOINT N=    6 E=    5 ET=LINESEG C=CYAN
      0.0000      0.0000      0.0000      0.0000
     10.1174      0.0000      0.0000      0.1174
     20.3150      0.0000      0.0000      0.3150
     30.6718      0.0000      0.0000      0.6718
     41.1518      0.0000      0.0000      1.1518
     51.6493      0.0000      0.0000      1.6493
           1           2
           2           3
           3           4
           4           5
           5           6
ZONE T="Time =       1.0000" F=FEPOINT N=    6 E=    5 ET=LINESEG C=CYAN
      0.0000      0.0000      0.0000      0.0000
     10.2827      0.0000      0.0000      0.2827
     20.6347      0.0000      0.0000      0.6347
     31.0884      0.0000      0.0000      1.0884
     41.5822      0.0000      0.0000      1.5822
     52.0768      0.0000      0.0000      2.0768
           1           2
           2           3
           3           4
           4           5
           5           6
ZONE T="Time =       1.2000" F=FEPOINT N=    6 E=    5 ET=LINESEG C=CYAN
      0.0000      0.0000      0.0000      0.0000
     10.4897      0.0000      0.0000      0.4897
     20.9936      0.0000      0.0000      0.9936
     31.5041      0.0000      0.0000      1.5041
     42.0037      0.0000      0.0000      2.0037
     52.5023      0.0000      0.0000      2.5023
           1           2
           2           3
           3           4
           4           5
           5           6
ZONE T="Time =       1.4000" F=FEPOINT N=    6 E=    5 ET=LINESEG C=CYAN
      0.0000      0.0000      0.0000      0.0000
     10.6783      0.0000      0.0000      0.6783
     21.3170      0.0000      0.0000      1.3170
     31.8875      0.0000      0.0000      1.8875
     42.4115      0.0000      0.0000      2.4115
     52.9171      0.0000      0.0000      2.9171
           1           2
           2           3
           3           4
           4           5
           5           6
ZONE T="Time =       1.6000" F=FEPOINT N=    6 E=    5 ET=LINESEG C=CYAN
      0.0000      0.0000      0.0000      0.0000
     10.8104      0.0000      0.0000      0.8104
     21.5617      0.0000      0.0000      1.5617
     32.2130      0.0000      0.0000      2.2130
     42.7852      0.0000      0.0000      2.7852
     53.3054      0.0000      0.0000      3.3054
           1           2
           2           3
           3           4
           4           5
           5           6
ZONE T="Time =       1.8000" F=FEPOINT N=    6 E=    5 ET=LINESEG C=CYAN
      0.0000      0.0000      0.0000      0.0000
     10.8846      0.0000      0.0000      0.8846
     21.7198      0.0000      0.0000      1.7198
     32.4585      0.0000      0.0000      2.4585
     43.0946      0.0000      0.0000      3.0946
     53.6377      0.0000      0.0000      3.6377
           1           2
           2           3
           3           4
           4           5
           5           6
ZONE T="Time =       2.0000" F=FEPOINT N=    6 E=    5 ET=LINESEG C=CYAN
      0.0000      0.0000      0.0000      0.0000
     10.9182      0.0000      0.0000      0.9182
     21.8044      0.0000      0.0000      1.8044
     32.6124      0.0000      0.0000      2.6124
     43.3088      0.0000      0.0000      3.3088
     53.8758      0.0000      0.0000      3.8758
           1           2
           2           3
           3           4
           4           5
           5           6
ZONE T="Time =       2.2000" F=FEPOINT N=    6 E=    5 ET=LINESEG C=CYAN
      0.0000      0.0000      0.0000      0.0000
     10.9270      0.0000      0.0000      0.9270
     21.8322      0.0000      0.0000      1.8322
     32.6742      0.0000      0.0000      2.6742
     43.4058      0.0000      0.0000      3.4058
     53.9881      0.0000      0.0000      3.9881
           1           2
           2           3
           3           4
           4           5
           5           6
ZONE T="Time =       2.4000" F=FEPOINT N=    6 E=    5 ET=LINESEG C=CYAN
      0.0000      0.0000      0.0000      0.0000
     10.9167      0.0000      0.0000      0.9167
     21.8124      0.0000      0.0000      1.8124
     32.6490      0.0000      0.0000      2.6490
     43.3803      0.0000      0.0000      3.3803
     53.9634      0.0000      0.0000      3.9634
           1           2
           2           3
           3           4
           4           5
           5           6
ZONE T="Time =       2.6000" F=FEPOINT N=    6 E=    5 ET=LINESEG C=CYAN
      0.0000      0.0000      0.0000      0.0000
     10.8853      0.0000      0.0000      0.8853
     21.7456      0.0000      0.0000      1.7456
     32.5435      0.0000      0.0000      2.5435
     43.2434      0.0000      0.0000      3.2434
     53.8142      0.0000      0.0000      3.8142
           1           2
           2           3
           3           4
           4           5
           5           6
ZONE T="Time =       2.8000" F=FEPOINT N=    6 E=    5 ET=LINESEG C=CYAN
      0.0000      0.0000      0.0000      0.0000
     10.8289      0.0000      0.0000      0.8289
     21.6296      0.0000      0.0000      1.6296
     32.3665      0.0000      0.0000      2.3665
     43.0176      0.0000      0.0000      3.0176
     53.5695      0.0000      0.0000      3.5695
           1           2
           2           3
           3           4
           4           5
           5           6
ZONE T="Time =       3.0000" F=FEPOINT N=    6 E=    5 ET=LINESEG C=CYAN
      0.0000      0.0000      0.0000      0.0000
     10.7468      0.0000      0.0000      0.7468
     21.4672      0.0000      0.0000      1.4672
     32.1319      0.0000      0.0000      2.1319
     42.7306      0.0000      0.0000      2.7306
     53.2631      0.0000      0.0000      3.2631
           1           2
           2           3
           3           4
           4           5
           5           6
ZONE T="Time =       3.2000" F=FEPOINT N=    6 E=    5 ET=LINESEG C=CYAN
      0.0000      0.0000      0.0000      0.0000
     10.6441      0.0000      0.0000      0.6441
     21.2701      0.0000      0.0000      1.2701
     31.8595      0.0000      0.0000      1.8595
     42.4097      0.0000      0.0000      2.4097
     52.9254      0.0000      0.0000      2.9254
           1           2
           2           3
           3           4
           4           5
           5           6
ZONE T="Time =       3.4000" F=FEPOINT N=    6 E=    5 ET=LINESEG C=CYAN
      0.0000      0.0000      0.0000      0.0000
     10.5317      0.0000      0.0000      0.5317
     21.0576      0.0000      0.0000      1.0576
     31.5732      0.0000      0.0000      1.5732
     42.0798      0.0000      0.0000      2.0798
     52.5814      0.0000      0.0000      2.5814
           1           2
           2           3
           3           4
           4           5
           5           6
ZONE T="Time =       3.6000" F=FEPOINT N=    6 E=    5 ET=LINESEG C=CYAN
      0.0000      0.0000      0.0000      0.0000
     10.4223      0.0000      0.0000      0.4223
     20.8518      0.0000      0.0000      0.8518
     31.2974      0.0000      0.0000      1.2974
     41.7636      0.0000      0.0000      1.7636
     52.2522      0.0000      0.0000      2.2522
           1           2
           2           3
           3           4
           4           5
           5           6
ZONE T="Time =       3.8000" F=FEPOINT N=    6 E=    5 ET=LINESEG C=CYAN
      0.0000      0.0000      0.0000      0.0000
     10.3273      0.0000      0.0000      0.3273
     20.6720      0.0000      0.0000      0.6720
     31.0541      0.0000      0.0000      1.0541
     41.4818      0.0000      0.0000      1.4818
     51.9577      0.0000      0.0000      1.9577
           1           2
           2           3
           3           4
           4           5
           5           6
ZONE T="Time =       4.0000" F=FEPOINT N=    6 E=    5 ET=LINESEG C=CYAN
      0.0000      0.0000      0.0000      0.0000
     10.2543      0.0000      0.0000      0.2543
     20.5318      0.0000      0.0000      0.5318
     30.8602      0.0000      0.0000      0.8602
     41.2533      0.0000      0.0000      1.2533
     51.7171      0.0000      0.0000      1.7171
           1           2
           2           3
           3           4
           4           5
           5           6
ZONE T="Time =       4.2000" F=FEPOINT N=    6 E=    5 ET=LINESEG C=CYAN
      0.0000      0.0000      0.0000      0.0000
     10.2063      0.0000      0.0000      0.2063
     20.4380      0.0000      0.0000      0.4380
     30.7271      0.0000      0.0000      0.7271
     41.0929      0.0000      0.0000      1.0929
     51.5470      0.0000      0.0000      1.5470
           1           2
           2           3
           3           4
           4           5
           5           6
ZONE T="Time =       4.4000" F=FEPOINT N=    6 E=    5 ET=LINESEG C=CYAN
      0.0000      0.0000      0.0000      0.0000
     10.1837      0.0000      0.0000      0.1837
     20.3927      0.0000      0.0000      0.3927
     30.6605      0.0000      0.0000      0.6605
     41.0106      0.0000      0.0000      1.0106
     51.4588      0.0000      0.0000      1.4588
           1           2
           2           3
           3           4
           4           5
           5           6
ZONE T="Time =       4.6000" F=FEPOINT N=    6 E=    5 ET=LINESEG C=CYAN
      0.0000      0.0000      0.0000      0.0000
     10.1852      0.0000      0.0000      0.1852
     20.3946      0.0000      0.0000      0.3946
     30.6610      0.0000      0.0000      0.6610
     41.0092      0.0000      0.0000      1.0092
     51.4565      0.0000      0.0000      1.4565
           1           2
           2           3
           3           4
           4           5
           5           6
ZONE T="Time =       4.8000" F=FEPOINT N=    6 E=    5 ET=LINESEG C=CYAN
      0.0000      0.0000      0.0000      0.0000
     10.2089      0.0000      0.0000      0.2089
     20.4403      0.0000      0.0000      0.4403
     30.7245      0.0000      0.0000      0.7245
     41.0844      0.0000      0.0000      1.0844
     51.5358      0.0000      0.0000      1.5358
           1           2
           2           3
           3           4
           4           5
           5           6
ZONE T="Time =       5.0000" F=FEPOINT N=    6 E=    5 ET=LINESEG C=CYAN
      0.0000      0.0000      0.0000      0.0000
     10.2524      0.0000      0.0000      0.2524
     20.5246      0.0000      0.0000      0.5246
     30.8429      0.0000      0.0000      0.8429
     41.2256      0.0000      0.0000      1.2256
     51.6850      0.0000      0.0000      1.6850
           1           2
           2           3
           3           4
           4           5
           5           6
ZONE T="Time =       5.2000" F=FEPOINT N=    6 E=    5 ET=LINESEG C=CYAN
      0.0000      0.0000      0.0000      0.0000
     10.3122      0.0000      0.0000      0.3122
     20.6402      0.0000      0.0000      0.6402
     31.0043      0.0000      0.0000      1.0043
     41.4175      0.0000      0.0000      1.4175
     51.8876      0.0000      0.0000      1.8876
           1           2
           2           3
           3           4
           4           5
           5           6
ZONE T="Time =       5.4000" F=FEPOINT N=    6 E=    5 ET=LINESEG C=CYAN
      0.0000      0.0000      0.0000      0.0000
     10.3835      0.0000      0.0000      0.3835
     20.7773      0.0000      0.0000      0.7773
     31.1944      0.0000      0.0000      1.1944
     41.6421      0.0000      0.0000      1.6421
     52.1242      0.0000      0.0000      2.1242
           1           2
           2           3
           3           4
           4           5
           5           6
ZONE T="Time =       5.6000" F=FEPOINT N=    6 E=    5 ET=LINESEG C=CYAN
      0.0000      0.0000      0.0000      0.0000
     10.4603      0.0000      0.0000      0.4603
     20.9245      0.0000      0.0000      0.9245
     31.3972      0.0000      0.0000      1.3972
     41.8804      0.0000      0.0000      1.8804
     52.3747      0.0000      0.0000      2.3747
           1           2
           2           3
           3           4
           4           5
           5           6
ZONE T="Time =       5.8000" F=FEPOINT N=    6 E=    5 ET=LINESEG C=CYAN
      0.0000      0.0000      0.0000      0.0000
     10.5361      0.0000      0.0000      0.5361
     21.0694      0.0000      0.0000      1.0694
     31.5962      0.0000      0.0000      1.5962
     42.1137      0.0000      0.0000      2.1137
     52.6197      0.0000      0.0000      2.6197
           1           2
           2           3
           3           4
           4           5
           5           6
ZONE T="Time =       6.0000" F=FEPOINT N=    6 E=    5 ET=LINESEG C=CYAN
      0.0000      0.0000      0.0000      0.0000
     10.6048      0.0000      0.0000      0.6048
     21.2007      0.0000      0.0000      1.2007
     31.7765      0.0000      0.0000      1.7765
     42.3249      0.0000      0.0000      2.3249
     52.8415      0.0000      0.0000      2.8415
           1           2
           2           3
           3           4
           4           5
           5           6
ZONE T="Time =       6.2000" F=FEPOINT N=    6 E=    5 ET=LINESEG C=CYAN
      0.0000      0.0000      0.0000      0.0000
     10.6612      0.0000      0.0000      0.6612
     21.3087      0.0000      0.0000      1.3087
     31.9252      0.0000      0.0000      1.9252
     42.4995      0.0000      0.0000      2.4995
     53.0251      0.0000      0.0000      3.0251
           1           2
           2           3
           3           4
           4           5
           5           6
ZONE T="Time =       6.4000" F=FEPOINT N=    6 E=    5 ET=LINESEG C=CYAN
      0.0000      0.0000      0.0000      0.0000
     10.7017      0.0000      0.0000      0.7017
     21.3865      0.0000      0.0000      1.3865
     32.0328      0.0000      0.0000      2.0328
     42.6264      0.0000      0.0000      2.6264
     53.1586      0.0000      0.0000      3.1586
           1           2
           2           3
           3           4
           4           5
           5           6
ZONE T="Time =       6.6000" F=FEPOINT N=    6 E=    5 ET=LINESEG C=CYAN
      0.0000      0.0000      0.0000      0.0000
     10.7244      0.0000      0.0000      0.7244
     21.4302      0.0000      0.0000      1.4302
     32.0936      0.0000      0.0000      2.0936
     42.6985      0.0000      0.0000      2.6985
     53.2346      0.0000      0.0000      3.2346
           1           2
           2           3
           3           4
           4           5
           5           6
ZONE T="Time =       6.8000" F=FEPOINT N=    6 E=    5 ET=LINESEG C=CYAN
      0.0000      0.0000      0.0000      0.0000
     10.7287      0.0000      0.0000      0.7287
     21.4388      0.0000      0.0000      1.4388
     32.1058      0.0000      0.0000      2.1058
     42.7133      0.0000      0.0000      2.7133
     53.2504      0.0000      0.0000      3.2504
           1           2
           2           3
           3           4
           4           5
           5           6
ZONE T="Time =       7.0000" F=FEPOINT N=    6 E=    5 ET=LINESEG C=CYAN
      0.0000      0.0000      0.0000      0.0000
     10.7156      0.0000      0.0000      0.7156
     21.4137      0.0000      0.0000      1.4137
     32.0714      0.0000      0.0000      2.0714
     42.6729      0.0000      0.0000      2.6729
     53.2079      0.0000      0.0000      3.2079
           1           2
           2           3
           3           4
           4           5
           5           6
ZONE T="Time =       7.2000" F=FEPOINT N=    6 E=    5 ET=LINESEG C=CYAN
      0.0000      0.0000      0.0000      0.0000
     10.6871      0.0000      0.0000      0.6871
     21.3589      0.0000      0.0000      1.3589
     31.9956      0.0000      0.0000      1.9956
     42.5835      0.0000      0.0000      2.5835
     53.1139      0.0000      0.0000      3.1139
           1           2
           2           3
           3           4
           4           5
           5           6
ZONE T="Time =       7.4000" F=FEPOINT N=    6 E=    5 ET=LINESEG C=CYAN
      0.0000      0.0000      0.0000      0.0000
     10.6460      0.0000      0.0000      0.6460
     21.2800      0.0000      0.0000      1.2800
     31.8865      0.0000      0.0000      1.8865
     42.4549      0.0000      0.0000      2.4549
     52.9785      0.0000      0.0000      2.9785
           1           2
           2           3
           3           4
           4           5
           5           6
ZONE T="Time =       7.6000" F=FEPOINT N=    6 E=    5 ET=LINESEG C=CYAN
      0.0000      0.0000      0.0000      0.0000
     10.5962      0.0000      0.0000      0.5962
     21.1844      0.0000      0.0000      1.1844
     31.7544      0.0000      0.0000      1.7544
     42.2992      0.0000      0.0000      2.2992
     52.8146      0.0000      0.0000      2.8146
           1           2
           2           3
           3           4
           4           5
           5           6
ZONE T="Time =       7.8000" F=FEPOINT N=    6 E=    5 ET=LINESEG C=CYAN
      0.0000      0.0000      0.0000      0.0000
     10.5419      0.0000      0.0000      0.5419
     21.0802      0.0000      0.0000      1.0802
     31.6104      0.0000      0.0000      1.6104
     42.1298      0.0000      0.0000      2.1298
     52.6364      0.0000      0.0000      2.6364
           1           2
           2           3
           3           4
           4           5
           5           6
ZONE T="Time =       8.0000" F=FEPOINT N=    6 E=    5 ET=LINESEG C=CYAN
      0.0000      0.0000      0.0000      0.0000
     10.4874      0.0000      0.0000      0.4874
     20.9757      0.0000      0.0000      0.9757
     31.4664      0.0000      0.0000      1.4664
     41.9603      0.0000      0.0000      1.9603
     52.4582      0.0000      0.0000      2.4582
           1           2
           2           3
           3           4
           4           5
           5           6
ZONE T="Time =       8.2000" F=FEPOINT N=    6 E=    5 ET=LINESEG C=CYAN
      0.0000      0.0000      0.0000      0.0000
     10.4370      0.0000      0.0000      0.4370
     20.8791      0.0000      0.0000      0.8791
     31.3332      0.0000      0.0000      1.3332
     41.8036      0.0000      0.0000      1.8036
     52.2935      0.0000      0.0000      2.2935
           1           2
           2           3
           3           4
           4           5
           5           6
ZONE T="Time =       8.4000" F=FEPOINT N=    6 E=    5 ET=LINESEG C=CYAN
      0.0000      0.0000      0.0000      0.0000
     10.3943      0.0000      0.0000      0.3943
     20.7973      0.0000      0.0000      0.7973
     31.2203      0.0000      0.0000      1.2203
     41.6709      0.0000      0.0000      1.6709
     52.1539      0.0000      0.0000      2.1539
           1           2
           2           3
           3           4
           4           5
           5           6
ZONE T="Time =       8.6000" F=FEPOINT N=    6 E=    5 ET=LINESEG C=CYAN
      0.0000      0.0000      0.0000      0.0000
     10.3621      0.0000      0.0000      0.3621
     20.7357      0.0000      0.0000      0.7357
     31.1353      0.0000      0.0000      1.1353
     41.5709      0.0000      0.0000      1.5709
     52.0487      0.0000      0.0000      2.0487
           1           2
           2           3
           3           4
           4           5
           5           6
ZONE T="Time =       8.8000" F=FEPOINT N=    6 E=    5 ET=LINESEG C=CYAN
      0.0000      0.0000      0.0000      0.0000
     10.3424      0.0000      0.0000      0.3424
     20.6977      0.0000      0.0000      0.6977
     31.0829      0.0000      0.0000      1.0829
     41.5091      0.0000      0.0000      1.5091
     51.9837      0.0000      0.0000      1.9837
           1           2
           2           3
           3           4
           4           5
           5           6
ZONE T="Time =       9.0000" F=FEPOINT N=    6 E=    5 ET=LINESEG C=CYAN
      0.0000      0.0000      0.0000      0.0000
     10.3357      0.0000      0.0000      0.3357
     20.6850      0.0000      0.0000      0.6850
     31.0652      0.0000      0.0000      1.0652
     41.4883      0.0000      0.0000      1.4883
     51.9618      0.0000      0.0000      1.9618
           1           2
           2           3
           3           4
           4           5
           5           6
ZONE T="Time =       9.2000" F=FEPOINT N=    6 E=    5 ET=LINESEG C=CYAN
      0.0000      0.0000      0.0000      0.0000
     10.3420      0.0000      0.0000      0.3420
     20.6969      0.0000      0.0000      0.6969
     31.0816      0.0000      0.0000      1.0816
     41.5075      0.0000      0.0000      1.5075
     51.9820      0.0000      0.0000      1.9820
           1           2
           2           3
           3           4
           4           5
           5           6
ZONE T="Time =       9.4000" F=FEPOINT N=    6 E=    5 ET=LINESEG C=CYAN
      0.0000      0.0000      0.0000      0.0000
     10.3598      0.0000      0.0000      0.3598
     20.7311      0.0000      0.0000      0.7311
     31.1288      0.0000      0.0000      1.1288
     41.5631      0.0000      0.0000      1.5631
     52.0405      0.0000      0.0000      2.0405
           1           2
           2           3
           3           4
           4           5
           5           6
ZONE T="Time =       9.6000" F=FEPOINT N=    6 E=    5 ET=LINESEG C=CYAN
      0.0000      0.0000      0.0000      0.0000
     10.3873      0.0000      0.0000      0.3873
     20.7838      0.0000      0.0000      0.7838
     31.2015      0.0000      0.0000      1.2015
     41.6487      0.0000      0.0000      1.6487
     52.1305      0.0000      0.0000      2.1305
           1           2
           2           3
           3           4
           4           5
           5           6
ZONE T="Time =       9.8000" F=FEPOINT N=    6 E=    5 ET=LINESEG C=CYAN
      0.0000      0.0000      0.0000      0.0000
     10.4217      0.0000      0.0000      0.4217
     20.8498      0.0000      0.0000      0.8498
     31.2927      0.0000      0.0000      1.2927
     41.7561      0.0000      0.0000      1.7561
     52.2434      0.0000      0.0000      2.2434
           1           2
           2           3
           3           4
           4           5
           5           6
ZONE T="Time =      10.0000" F=FEPOINT N=    6 E=    5 ET=LINESEG C=CYAN
      0.0000      0.0000      0.0000      0.0000
     10.4601      0.0000      0.0000      0.4601
     20.9235      0.0000      0.0000      0.9235
     31.3944      0.0000      0.0000      1.3944
     41.8758      0.0000      0.0000      1.8758
     52.3694      0.0000      0.0000      2.3694
           1           2
           2           3
           3           4
           4           5
           5           6
ZONE T="Time =      10.2100" F=FEPOINT N=    6 E=    5 ET=LINESEG C=CYAN
      0.0000      0.0000      0.0000      0.0000
     10.5013      0.0000      0.0000      0.5013
     21.0029      0.0000      0.0000      1.0029
     31.5089      0.0000      0.0000      1.5089
     42.0505      0.0000      0.0000      2.0505
     52.7775      0.0000      0.0000      2.7775
           1           2
           2           3
           3           4
           4           5
           5           6
ZONE T="Time =      10.4100" F=FEPOINT N=    6 E=    5 ET=LINESEG C=CYAN
      0.0000      0.0000      0.0000      0.0000
     10.5410      0.0000      0.0000      0.5410
     21.0891      0.0000      0.0000      1.0891
     31.6798      0.0000      0.0000      1.6798
     42.4124      0.0000      0.0000      2.4124
     53.3824      0.0000      0.0000      3.3824
           1           2
           2           3
           3           4
           4           5
           5           6
ZONE T="Time =      10.6100" F=FEPOINT N=    6 E=    5 ET=LINESEG C=CYAN
      0.0000      0.0000      0.0000      0.0000
     10.5979      0.0000      0.0000      0.5979
     21.2343      0.0000      0.0000      1.2343
     31.9868      0.0000      0.0000      1.9868
     42.9151      0.0000      0.0000      2.9151
     53.9377      0.0000      0.0000      3.9377
           1           2
           2           3
           3           4
           4           5
           5           6
ZONE T="Time =      10.8100" F=FEPOINT N=    6 E=    5 ET=LINESEG C=CYAN
      0.0000      0.0000      0.0000      0.0000
     10.7078      0.0000      0.0000      0.7078
     21.4875      0.0000      0.0000      1.4875
     32.4090      0.0000      0.0000      2.4090
     43.4319      0.0000      0.0000      3.4319
     54.4451      0.0000      0.0000      4.4451
           1           2
           2           3
           3           4
           4           5
           5           6
ZONE T="Time =      11.0100" F=FEPOINT N=    6 E=    5 ET=LINESEG C=CYAN
      0.0000      0.0000      0.0000      0.0000
     10.8869      0.0000      0.0000      0.8869
     21.8352      0.0000      0.0000      1.8352
     32.8672      0.0000      0.0000      2.8672
     43.9128      0.0000      0.0000      3.9128
     54.9251      0.0000      0.0000      4.9251
           1           2
           2           3
           3           4
           4           5
           5           6
ZONE T="Time =      11.2100" F=FEPOINT N=    6 E=    5 ET=LINESEG C=CYAN
      0.0000      0.0000      0.0000      0.0000
     11.1002      0.0000      0.0000      1.1002
     22.2069      0.0000      0.0000      2.2069
     33.3013      0.0000      0.0000      3.3013
     44.3554      0.0000      0.0000      4.3554
     55.3729      0.0000      0.0000      5.3729
           1           2
           2           3
           3           4
           4           5
           5           6
ZONE T="Time =      11.4100" F=FEPOINT N=    6 E=    5 ET=LINESEG C=CYAN
      0.0000      0.0000      0.0000      0.0000
     11.2876      0.0000      0.0000      1.2876
     22.5275      0.0000      0.0000      2.5275
     33.6793      0.0000      0.0000      3.6793
     44.7558      0.0000      0.0000      4.7558
     55.7796      0.0000      0.0000      5.7796
           1           2
           2           3
           3           4
           4           5
           5           6
ZONE T="Time =      11.6100" F=FEPOINT N=    6 E=    5 ET=LINESEG C=CYAN
      0.0000      0.0000      0.0000      0.0000
     11.4106      0.0000      0.0000      1.4106
     22.7536      0.0000      0.0000      2.7536
     33.9776      0.0000      0.0000      3.9776
     45.0963      0.0000      0.0000      5.0963
     56.1326      0.0000      0.0000      6.1326
           1           2
           2           3
           3           4
           4           5
           5           6
ZONE T="Time =      11.8100" F=FEPOINT N=    6 E=    5 ET=LINESEG C=CYAN
      0.0000      0.0000      0.0000      0.0000
     11.4680      0.0000      0.0000      1.4680
     22.8792      0.0000      0.0000      2.8792
     34.1773      0.0000      0.0000      4.1773
     45.3511      0.0000      0.0000      5.3511
     56.4071      0.0000      0.0000      6.4071
           1           2
           2           3
           3           4
           4           5
           5           6
ZONE T="Time =      12.0100" F=FEPOINT N=    6 E=    5 ET=LINESEG C=CYAN
      0.0000      0.0000      0.0000      0.0000
     11.4789      0.0000      0.0000      1.4789
     22.9203      0.0000      0.0000      2.9203
     34.2713      0.0000      0.0000      4.2713
     45.4947      0.0000      0.0000      5.4947
     56.5709      0.0000      0.0000      6.5709
           1           2