TITLE = "Test the mass matrix of the Q4 elements"
VARIABLES =    "X"   "Y"   "Z" "DIS"

ZONE T="Time =       0.0000" F=FEPOINT N=    4 E=    1 ET=QUADRILATERAL C=CYAN
      0.0000      0.0000      0.0000      0.0000
    100.0000      0.0000      0.0000      0.0000
    100.0000    100.0000      0.0000      0.0000
      0.0000    100.0000      0.0000      0.0000
           1           2           3           4
